    3    3    1    1
  0.1362399E+02  0.3866460E-09  0.3866460E-09  0.3866460E-09  0.5000000E-15
  1.000000000000000E-004
  CAR 
 LIO                                     
   26  864   36
 
  0.8333333E-01  0.8333333E-01  0.8333333E-01  0.1157407E-02
   1      -34.587333
   2      -33.924984
   3      -15.472710
   4      -15.185167
   5      -10.335953
   6      -10.333678
   7       -8.934058
   8       -8.900973
   9       -7.301974
  10       -7.216185
  11       -6.999328
  12       -6.800793
  13        2.691390
  14        2.693581
  15        2.730122
  16        2.734822
  17        2.816989
  18        2.850608
  19        5.223018
  20        5.270554
  21        5.357785
  22        5.391276
  23        5.470300
  24        5.470576
  25        9.619734
  26        9.620378
  27        9.791074
  28       10.150955
  29       10.263176
  30       10.308884
  31       10.797961
  32       10.932907
  33       10.976777
  34       11.046521
  35       11.224240
  36       11.319856
 
 -0.8333333E-01 -0.8333333E-01 -0.8333333E-01  0.1157407E-02
   1      -34.587333
   2      -33.924984
   3      -15.472710
   4      -15.185167
   5      -10.335953
   6      -10.333678
   7       -8.934058
   8       -8.900973
   9       -7.301974
  10       -7.216185
  11       -6.999328
  12       -6.800793
  13        2.691390
  14        2.693581
  15        2.730122
  16        2.734822
  17        2.816989
  18        2.850608
  19        5.223018
  20        5.270553
  21        5.357785
  22        5.391276
  23        5.470300
  24        5.470576
  25        9.619734
  26        9.620378
  27        9.791074
  28       10.150955
  29       10.263176
  30       10.308884
  31       10.797961
  32       10.932907
  33       10.976777
  34       11.046536
  35       11.224237
  36       11.319240
 
  0.8333333E-01  0.0000000E+00  0.0000000E+00  0.1157407E-02
   1      -34.587334
   2      -33.924983
   3      -15.470227
   4      -15.188039
   5      -10.339727
   6      -10.327865
   7       -8.934147
   8       -8.900885
   9       -7.379921
  10       -7.126761
  11       -6.971772
  12       -6.841436
  13        2.684851
  14        2.701094
  15        2.727806
  16        2.733047
  17        2.818897
  18        2.851667
  19        5.228916
  20        5.258335
  21        5.376029
  22        5.396645
  23        5.432685
  24        5.490767
  25        9.599129
  26        9.640307
  27        9.798025
  28       10.137630
  29       10.269311
  30       10.307228
  31       10.815633
  32       10.908547
  33       10.980722
  34       11.060731
  35       11.219423
  36       11.334629
 
 -0.8333333E-01  0.0000000E+00  0.0000000E+00  0.1157407E-02
   1      -34.587334
   2      -33.924983
   3      -15.470227
   4      -15.188039
   5      -10.339727
   6      -10.327865
   7       -8.934147
   8       -8.900885
   9       -7.379921
  10       -7.126761
  11       -6.971772
  12       -6.841436
  13        2.684851
  14        2.701094
  15        2.727806
  16        2.733047
  17        2.818897
  18        2.851667
  19        5.228916
  20        5.258335
  21        5.376029
  22        5.396645
  23        5.432685
  24        5.490767
  25        9.599129
  26        9.640307
  27        9.798025
  28       10.137630
  29       10.269311
  30       10.307228
  31       10.815633
  32       10.908547
  33       10.980722
  34       11.060729
  35       11.219388
  36       11.339559
 
  0.0000000E+00  0.0000000E+00 -0.8333333E-01  0.1157407E-02
   1      -34.587333
   2      -33.924984
   3      -15.472710
   4      -15.185167
   5      -10.335953
   6      -10.333678
   7       -8.934058
   8       -8.900973
   9       -7.301975
  10       -7.216185
  11       -6.999328
  12       -6.800793
  13        2.691389
  14        2.693581
  15        2.730122
  16        2.734821
  17        2.816990
  18        2.850609
  19        5.223018
  20        5.270554
  21        5.357784
  22        5.391275
  23        5.470294
  24        5.470582
  25        9.619736
  26        9.620376
  27        9.791074
  28       10.150955
  29       10.263176
  30       10.308884
  31       10.797962
  32       10.932907
  33       10.976776
  34       11.046520
  35       11.224239
  36       11.319348
 
  0.0000000E+00  0.0000000E+00  0.8333333E-01  0.1157407E-02
   1      -34.587333
   2      -33.924984
   3      -15.472710
   4      -15.185167
   5      -10.335953
   6      -10.333678
   7       -8.934058
   8       -8.900973
   9       -7.301975
  10       -7.216185
  11       -6.999328
  12       -6.800793
  13        2.691389
  14        2.693581
  15        2.730122
  16        2.734821
  17        2.816990
  18        2.850609
  19        5.223018
  20        5.270554
  21        5.357784
  22        5.391275
  23        5.470294
  24        5.470582
  25        9.619736
  26        9.620376
  27        9.791074
  28       10.150955
  29       10.263176
  30       10.308884
  31       10.797962
  32       10.932907
  33       10.976778
  34       11.046521
  35       11.224231
  36       11.319872
 
  0.0000000E+00  0.8333333E-01  0.0000000E+00  0.1157407E-02
   1      -34.587334
   2      -33.924983
   3      -15.470206
   4      -15.188055
   5      -10.339717
   6      -10.327862
   7       -8.934150
   8       -8.900888
   9       -7.380251
  10       -7.126388
  11       -6.971872
  12       -6.841386
  13        2.684808
  14        2.701063
  15        2.727766
  16        2.733063
  17        2.818915
  18        2.851733
  19        5.228989
  20        5.258222
  21        5.376153
  22        5.396725
  23        5.432449
  24        5.490837
  25        9.599246
  26        9.640159
  27        9.798113
  28       10.137669
  29       10.269292
  30       10.307168
  31       10.815556
  32       10.908749
  33       10.980659
  34       11.060876
  35       11.219190
  36       11.333054
 
  0.0000000E+00 -0.8333333E-01  0.0000000E+00  0.1157407E-02
   1      -34.587334
   2      -33.924983
   3      -15.470206
   4      -15.188055
   5      -10.339717
   6      -10.327862
   7       -8.934150
   8       -8.900888
   9       -7.380251
  10       -7.126388
  11       -6.971872
  12       -6.841386
  13        2.684808
  14        2.701063
  15        2.727766
  16        2.733063
  17        2.818915
  18        2.851732
  19        5.228988
  20        5.258221
  21        5.376153
  22        5.396725
  23        5.432449
  24        5.490837
  25        9.599246
  26        9.640159
  27        9.798113
  28       10.137669
  29       10.269292
  30       10.307168
  31       10.815556
  32       10.908749
  33       10.980671
  34       11.060901
  35       11.219454
  36       11.344866
 
  0.2500000E+00  0.8333333E-01  0.8333333E-01  0.1157407E-02
   1      -34.563649
   2      -33.899853
   3      -15.626682
   4      -15.355754
   5      -10.640353
   6      -10.600526
   7       -9.178552
   8       -9.148012
   9       -7.371036
  10       -7.046162
  11       -6.616585
  12       -6.371271
  13        2.957561
  14        2.989515
  15        3.026613
  16        3.063202
  17        3.464751
  18        3.510837
  19        4.739159
  20        4.803653
  21        5.167677
  22        5.245306
  23        5.621044
  24        5.700217
  25        9.483030
  26        9.619647
  27        9.708739
  28       10.021448
  29       10.106089
  30       10.234599
  31       10.638026
  32       10.736234
  33       10.857142
  34       10.924008
  35       11.055952
  36       11.170836
 
 -0.2500000E+00 -0.8333333E-01 -0.8333333E-01  0.1157407E-02
   1      -34.563649
   2      -33.899853
   3      -15.626682
   4      -15.355754
   5      -10.640354
   6      -10.600526
   7       -9.178553
   8       -9.148011
   9       -7.371037
  10       -7.046163
  11       -6.616586
  12       -6.371270
  13        2.957561
  14        2.989515
  15        3.026612
  16        3.063202
  17        3.464751
  18        3.510837
  19        4.739158
  20        4.803653
  21        5.167677
  22        5.245306
  23        5.621044
  24        5.700216
  25        9.483030
  26        9.619647
  27        9.708739
  28       10.021448
  29       10.106089
  30       10.234599
  31       10.638026
  32       10.736234
  33       10.857138
  34       10.923995
  35       11.055107
  36       11.164239
 
  0.8333333E-01  0.2500000E+00  0.8333333E-01  0.1157407E-02
   1      -34.563650
   2      -33.899854
   3      -15.626583
   4      -15.355826
   5      -10.640338
   6      -10.600503
   7       -9.178549
   8       -9.148049
   9       -7.371677
  10       -7.045680
  11       -6.616707
  12       -6.371010
  13        2.957506
  14        2.989470
  15        3.026590
  16        3.063184
  17        3.464785
  18        3.510872
  19        4.739182
  20        4.803631
  21        5.167694
  22        5.245270
  23        5.621040
  24        5.700230
  25        9.483280
  26        9.619226
  27        9.709156
  28       10.021708
  29       10.105908
  30       10.234239
  31       10.638134
  32       10.736913
  33       10.857486
  34       10.923797
  35       11.055265
  36       11.163795
 
 -0.8333333E-01 -0.2500000E+00 -0.8333333E-01  0.1157407E-02
   1      -34.563650
   2      -33.899854
   3      -15.626583
   4      -15.355826
   5      -10.640339
   6      -10.600502
   7       -9.178550
   8       -9.148048
   9       -7.371678
  10       -7.045680
  11       -6.616707
  12       -6.371009
  13        2.957506
  14        2.989470
  15        3.026590
  16        3.063185
  17        3.464784
  18        3.510871
  19        4.739181
  20        4.803631
  21        5.167694
  22        5.245270
  23        5.621040
  24        5.700229
  25        9.483280
  26        9.619226
  27        9.709156
  28       10.021708
  29       10.105908
  30       10.234239
  31       10.638134
  32       10.736913
  33       10.857484
  34       10.923798
  35       11.055198
  36       11.163312
 
  0.8333333E-01  0.8333333E-01  0.2500000E+00  0.1157407E-02
   1      -34.563641
   2      -33.899860
   3      -15.635875
   4      -15.345055
   5      -10.635471
   6      -10.610979
   7       -9.179103
   8       -9.147726
   9       -7.221868
  10       -7.214663
  11       -6.606937
  12       -6.357254
  13        2.957861
  14        2.991585
  15        3.026637
  16        3.064095
  17        3.462273
  18        3.510636
  19        4.740222
  20        4.802409
  21        5.168958
  22        5.247432
  23        5.616960
  24        5.700711
  25        9.469523
  26        9.632090
  27        9.705735
  28       10.011535
  29       10.145147
  30       10.228539
  31       10.573366
  32       10.728014
  33       10.864745
  34       10.979299
  35       11.016436
  36       11.216140
 
 -0.8333333E-01 -0.8333333E-01 -0.2500000E+00  0.1157407E-02
   1      -34.563641
   2      -33.899860
   3      -15.635875
   4      -15.345055
   5      -10.635470
   6      -10.610980
   7       -9.179101
   8       -9.147728
   9       -7.221868
  10       -7.214663
  11       -6.606937
  12       -6.357255
  13        2.957861
  14        2.991585
  15        3.026638
  16        3.064095
  17        3.462273
  18        3.510637
  19        4.740223
  20        4.802409
  21        5.168958
  22        5.247431
  23        5.616960
  24        5.700711
  25        9.469523
  26        9.632090
  27        9.705735
  28       10.011535
  29       10.145147
  30       10.228539
  31       10.573366
  32       10.728014
  33       10.864745
  34       10.979311
  35       11.016415
  36       11.215344
 
  0.8333333E-01  0.0000000E+00 -0.1666667E+00  0.1157407E-02
   1      -34.563643
   2      -33.899857
   3      -15.632963
   4      -15.348536
   5      -10.636412
   6      -10.608348
   7       -9.179265
   8       -9.147887
   9       -7.278606
  10       -7.151712
  11       -6.615817
  12       -6.355473
  13        2.956394
  14        2.993774
  15        3.023679
  16        3.064639
  17        3.464695
  18        3.509729
  19        4.738670
  20        4.803618
  21        5.166812
  22        5.246138
  23        5.621748
  24        5.700330
  25        9.500179
  26        9.580574
  27        9.717564
  28       10.038914
  29       10.128847
  30       10.220037
  31       10.598147
  32       10.746874
  33       10.831122
  34       10.960169
  35       11.042931
  36       11.196574
 
 -0.8333333E-01  0.0000000E+00  0.1666667E+00  0.1157407E-02
   1      -34.563643
   2      -33.899857
   3      -15.632963
   4      -15.348536
   5      -10.636411
   6      -10.608349
   7       -9.179264
   8       -9.147888
   9       -7.278606
  10       -7.151711
  11       -6.615817
  12       -6.355473
  13        2.956394
  14        2.993774
  15        3.023679
  16        3.064639
  17        3.464695
  18        3.509730
  19        4.738671
  20        4.803618
  21        5.166812
  22        5.246137
  23        5.621748
  24        5.700330
  25        9.500179
  26        9.580574
  27        9.717564
  28       10.038914
  29       10.128847
  30       10.220037
  31       10.598147
  32       10.746874
  33       10.831122
  34       10.960179
  35       11.042912
  36       11.196882
 
  0.2500000E+00  0.1666667E+00  0.1666667E+00  0.1157407E-02
   1      -34.563643
   2      -33.899857
   3      -15.632960
   4      -15.348540
   5      -10.636420
   6      -10.608337
   7       -9.179261
   8       -9.147893
   9       -7.278720
  10       -7.151586
  11       -6.615818
  12       -6.355485
  13        2.956393
  14        2.993776
  15        3.023678
  16        3.064640
  17        3.464693
  18        3.509729
  19        4.738672
  20        4.803615
  21        5.166819
  22        5.246133
  23        5.621739
  24        5.700337
  25        9.500137
  26        9.580612
  27        9.717596
  28       10.038883
  29       10.128831
  30       10.220041
  31       10.598151
  32       10.746882
  33       10.831136
  34       10.960215
  35       11.043231
  36       11.197733
 
 -0.2500000E+00 -0.1666667E+00 -0.1666667E+00  0.1157407E-02
   1      -34.563643
   2      -33.899857
   3      -15.632960
   4      -15.348540
   5      -10.636421
   6      -10.608336
   7       -9.179262
   8       -9.147891
   9       -7.278720
  10       -7.151586
  11       -6.615818
  12       -6.355484
  13        2.956393
  14        2.993776
  15        3.023678
  16        3.064641
  17        3.464693
  18        3.509728
  19        4.738672
  20        4.803616
  21        5.166820
  22        5.246133
  23        5.621739
  24        5.700337
  25        9.500137
  26        9.580612
  27        9.717596
  28       10.038883
  29       10.128832
  30       10.220041
  31       10.598151
  32       10.746882
  33       10.831135
  34       10.960170
  35       11.043189
  36       11.197682
 
  0.8333333E-01 -0.1666667E+00  0.0000000E+00  0.1157407E-02
   1      -34.563657
   2      -33.899850
   3      -15.618188
   4      -15.365283
   5      -10.641070
   6      -10.593920
   7       -9.169138
   8       -9.160543
   9       -7.425493
  10       -6.979630
  11       -6.602894
  12       -6.398554
  13        2.953744
  14        2.994491
  15        3.023503
  16        3.064041
  17        3.464959
  18        3.511180
  19        4.741492
  20        4.803183
  21        5.175809
  22        5.238294
  23        5.613444
  24        5.703842
  25        9.467953
  26        9.618613
  27        9.762007
  28        9.976525
  29       10.135233
  30       10.185626
  31       10.663475
  32       10.804761
  33       10.831866
  34       10.910609
  35       11.050410
  36       11.217501
 
 -0.8333333E-01  0.1666667E+00  0.0000000E+00  0.1157407E-02
   1      -34.563657
   2      -33.899850
   3      -15.618188
   4      -15.365283
   5      -10.641070
   6      -10.593920
   7       -9.169138
   8       -9.160543
   9       -7.425493
  10       -6.979630
  11       -6.602894
  12       -6.398554
  13        2.953744
  14        2.994491
  15        3.023503
  16        3.064041
  17        3.464959
  18        3.511180
  19        4.741492
  20        4.803183
  21        5.175809
  22        5.238294
  23        5.613444
  24        5.703842
  25        9.467953
  26        9.618613
  27        9.762007
  28        9.976525
  29       10.135233
  30       10.185626
  31       10.663475
  32       10.804761
  33       10.831865
  34       10.909918
  35       11.049689
  36       11.164343
 
  0.0000000E+00  0.1666667E+00 -0.8333333E-01  0.1157407E-02
   1      -34.563650
   2      -33.899854
   3      -15.626579
   4      -15.355830
   5      -10.640342
   6      -10.600496
   7       -9.178547
   8       -9.148053
   9       -7.371718
  10       -7.045632
  11       -6.616701
  12       -6.371024
  13        2.957504
  14        2.989471
  15        3.026588
  16        3.063187
  17        3.464784
  18        3.510872
  19        4.739184
  20        4.803630
  21        5.167699
  22        5.245265
  23        5.621032
  24        5.700235
  25        9.483253
  26        9.619239
  27        9.709203
  28       10.021676
  29       10.105885
  30       10.234249
  31       10.638142
  32       10.736899
  33       10.857499
  34       10.923837
  35       11.055163
  36       11.163896
 
  0.0000000E+00 -0.1666667E+00  0.8333333E-01  0.1157407E-02
   1      -34.563650
   2      -33.899854
   3      -15.626579
   4      -15.355830
   5      -10.640342
   6      -10.600496
   7       -9.178546
   8       -9.148054
   9       -7.371718
  10       -7.045632
  11       -6.616701
  12       -6.371025
  13        2.957504
  14        2.989471
  15        3.026588
  16        3.063186
  17        3.464784
  18        3.510872
  19        4.739185
  20        4.803629
  21        5.167699
  22        5.245265
  23        5.621032
  24        5.700236
  25        9.483254
  26        9.619239
  27        9.709203
  28       10.021676
  29       10.105885
  30       10.234249
  31       10.638142
  32       10.736899
  33       10.857501
  34       10.923835
  35       11.055176
  36       11.163837
 
  0.1666667E+00  0.0000000E+00 -0.8333333E-01  0.1157407E-02
   1      -34.563649
   2      -33.899853
   3      -15.626685
   4      -15.355750
   5      -10.640350
   6      -10.600532
   7       -9.178556
   8       -9.148006
   9       -7.370996
  10       -7.046212
  11       -6.616591
  12       -6.371255
  13        2.957562
  14        2.989512
  15        3.026615
  16        3.063200
  17        3.464752
  18        3.510836
  19        4.739157
  20        4.803655
  21        5.167669
  22        5.245311
  23        5.621053
  24        5.700211
  25        9.483057
  26        9.619634
  27        9.708692
  28       10.021480
  29       10.106112
  30       10.234587
  31       10.638018
  32       10.736249
  33       10.857122
  34       10.923958
  35       11.055255
  36       11.166459
 
 -0.1666667E+00  0.0000000E+00  0.8333333E-01  0.1157407E-02
   1      -34.563649
   2      -33.899853
   3      -15.626685
   4      -15.355750
   5      -10.640349
   6      -10.600533
   7       -9.178555
   8       -9.148007
   9       -7.370996
  10       -7.046211
  11       -6.616591
  12       -6.371256
  13        2.957562
  14        2.989512
  15        3.026615
  16        3.063200
  17        3.464752
  18        3.510837
  19        4.739157
  20        4.803655
  21        5.167669
  22        5.245310
  23        5.621052
  24        5.700211
  25        9.483057
  26        9.619634
  27        9.708692
  28       10.021480
  29       10.106112
  30       10.234587
  31       10.638018
  32       10.736249
  33       10.857122
  34       10.923971
  35       11.055139
  36       11.169753
 
 -0.1666667E+00 -0.1666667E+00 -0.2500000E+00  0.1157407E-02
   1      -34.563641
   2      -33.899860
   3      -15.635875
   4      -15.345055
   5      -10.635470
   6      -10.610980
   7       -9.179101
   8       -9.147728
   9       -7.221861
  10       -7.214669
  11       -6.606937
  12       -6.357255
  13        2.957861
  14        2.991586
  15        3.026638
  16        3.064095
  17        3.462272
  18        3.510636
  19        4.740223
  20        4.802408
  21        5.168959
  22        5.247431
  23        5.616960
  24        5.700711
  25        9.469523
  26        9.632089
  27        9.705735
  28       10.011534
  29       10.145147
  30       10.228539
  31       10.573365
  32       10.728014
  33       10.864747
  34       10.979299
  35       11.016415
  36       11.215382
 
  0.1666667E+00  0.1666667E+00  0.2500000E+00  0.1157407E-02
   1      -34.563641
   2      -33.899860
   3      -15.635875
   4      -15.345055
   5      -10.635471
   6      -10.610979
   7       -9.179103
   8       -9.147726
   9       -7.221862
  10       -7.214669
  11       -6.606937
  12       -6.357254
  13        2.957861
  14        2.991586
  15        3.026637
  16        3.064096
  17        3.462273
  18        3.510636
  19        4.740222
  20        4.802409
  21        5.168958
  22        5.247432
  23        5.616961
  24        5.700711
  25        9.469523
  26        9.632089
  27        9.705735
  28       10.011535
  29       10.145147
  30       10.228538
  31       10.573366
  32       10.728014
  33       10.864747
  34       10.979340
  35       11.016417
  36       11.214600
 
  0.1666667E+00  0.2500000E+00  0.1666667E+00  0.1157407E-02
   1      -34.563644
   2      -33.899858
   3      -15.632918
   4      -15.348569
   5      -10.636438
   6      -10.608299
   7       -9.179269
   8       -9.147920
   9       -7.279261
  10       -7.151075
  11       -6.615894
  12       -6.355371
  13        2.956342
  14        2.993763
  15        3.023677
  16        3.064663
  17        3.464707
  18        3.509728
  19        4.738680
  20        4.803596
  21        5.166826
  22        5.246119
  23        5.621752
  24        5.700338
  25        9.500444
  26        9.580187
  27        9.717784
  28       10.039011
  29       10.129053
  30       10.219602
  31       10.598186
  32       10.747269
  33       10.831236
  34       10.960244
  35       11.044707
  36       11.196988
 
 -0.1666667E+00 -0.2500000E+00 -0.1666667E+00  0.1157407E-02
   1      -34.563643
   2      -33.899858
   3      -15.632918
   4      -15.348569
   5      -10.636439
   6      -10.608298
   7       -9.179270
   8       -9.147919
   9       -7.279261
  10       -7.151076
  11       -6.615894
  12       -6.355371
  13        2.956342
  14        2.993763
  15        3.023676
  16        3.064663
  17        3.464707
  18        3.509728
  19        4.738680
  20        4.803596
  21        5.166826
  22        5.246119
  23        5.621753
  24        5.700338
  25        9.500444
  26        9.580187
  27        9.717784
  28       10.039011
  29       10.129054
  30       10.219601
  31       10.598185
  32       10.747269
  33       10.831232
  34       10.960056
  35       11.042735
  36       11.200097
 
  0.0000000E+00  0.8333333E-01 -0.1666667E+00  0.1157407E-02
   1      -34.563644
   2      -33.899858
   3      -15.632915
   4      -15.348573
   5      -10.636447
   6      -10.608286
   7       -9.179267
   8       -9.147924
   9       -7.279376
  10       -7.150950
  11       -6.615894
  12       -6.355382
  13        2.956340
  14        2.993764
  15        3.023675
  16        3.064664
  17        3.464707
  18        3.509728
  19        4.738683
  20        4.803595
  21        5.166831
  22        5.246115
  23        5.621743
  24        5.700345
  25        9.500403
  26        9.580226
  27        9.717816
  28       10.038981
  29       10.129038
  30       10.219605
  31       10.598192
  32       10.747276
  33       10.831244
  34       10.960010
  35       11.042749
  36       11.197250
 
  0.0000000E+00 -0.8333333E-01  0.1666667E+00  0.1157407E-02
   1      -34.563644
   2      -33.899858
   3      -15.632915
   4      -15.348573
   5      -10.636447
   6      -10.608287
   7       -9.179266
   8       -9.147925
   9       -7.279376
  10       -7.150950
  11       -6.615894
  12       -6.355383
  13        2.956340
  14        2.993764
  15        3.023676
  16        3.064664
  17        3.464707
  18        3.509729
  19        4.738683
  20        4.803594
  21        5.166831
  22        5.246114
  23        5.621743
  24        5.700345
  25        9.500403
  26        9.580226
  27        9.717816
  28       10.038981
  29       10.129038
  30       10.219605
  31       10.598192
  32       10.747276
  33       10.831245
  34       10.960014
  35       11.042858
  36       11.196549
 
 -0.1666667E+00  0.8333333E-01  0.0000000E+00  0.1157407E-02
   1      -34.563657
   2      -33.899849
   3      -15.618247
   4      -15.365238
   5      -10.641124
   6      -10.593883
   7       -9.169147
   8       -9.160535
   9       -7.425203
  10       -6.979724
  11       -6.602959
  12       -6.398659
  13        2.953745
  14        2.994523
  15        3.023526
  16        3.064080
  17        3.464943
  18        3.511140
  19        4.741479
  20        4.803181
  21        5.175804
  22        5.238298
  23        5.613444
  24        5.703870
  25        9.467904
  26        9.618683
  27        9.761692
  28        9.976561
  29       10.135774
  30       10.185348
  31       10.663174
  32       10.805443
  33       10.831229
  34       10.909353
  35       11.049846
  36       11.164735
 
  0.1666667E+00 -0.8333333E-01  0.0000000E+00  0.1157407E-02
   1      -34.563657
   2      -33.899849
   3      -15.618247
   4      -15.365238
   5      -10.641123
   6      -10.593883
   7       -9.169147
   8       -9.160535
   9       -7.425203
  10       -6.979724
  11       -6.602959
  12       -6.398659
  13        2.953745
  14        2.994523
  15        3.023526
  16        3.064080
  17        3.464943
  18        3.511139
  19        4.741479
  20        4.803180
  21        5.175804
  22        5.238298
  23        5.613444
  24        5.703870
  25        9.467904
  26        9.618683
  27        9.761692
  28        9.976561
  29       10.135774
  30       10.185348
  31       10.663174
  32       10.805443
  33       10.831228
  34       10.909343
  35       11.049762
  36       11.165741
 
  0.4166667E+00  0.8333333E-01  0.8333333E-01  0.1157407E-02
   1      -34.526941
   2      -33.860875
   3      -15.854418
   4      -15.611654
   5      -10.958759
   6      -10.882283
   7       -9.613795
   8       -9.577883
   9       -7.470611
  10       -7.108939
  11       -5.807383
  12       -5.599715
  13        3.388375
  14        3.415167
  15        3.453996
  16        3.475100
  17        4.203787
  18        4.247674
  19        4.485064
  20        4.524041
  21        5.165702
  22        5.234498
  23        5.689420
  24        5.761557
  25        9.194289
  26        9.328134
  27        9.657686
  28        9.747336
  29        9.936358
  30       10.145220
  31       10.307545
  32       10.367803
  33       10.772501
  34       10.796426
  35       10.974465
  36       11.128541
 
 -0.4166667E+00 -0.8333333E-01 -0.8333333E-01  0.1157407E-02
   1      -34.526941
   2      -33.860875
   3      -15.854418
   4      -15.611654
   5      -10.958760
   6      -10.882282
   7       -9.613796
   8       -9.577880
   9       -7.470611
  10       -7.108940
  11       -5.807384
  12       -5.599715
  13        3.388374
  14        3.415167
  15        3.453996
  16        3.475100
  17        4.203790
  18        4.247671
  19        4.485061
  20        4.524045
  21        5.165702
  22        5.234498
  23        5.689420
  24        5.761557
  25        9.194289
  26        9.328134
  27        9.657687
  28        9.747336
  29        9.936359
  30       10.145220
  31       10.307545
  32       10.367803
  33       10.772500
  34       10.796426
  35       10.974453
  36       11.128566
 
  0.8333333E-01  0.4166667E+00  0.8333333E-01  0.1157407E-02
   1      -34.526942
   2      -33.860876
   3      -15.854186
   4      -15.611826
   5      -10.958685
   6      -10.882301
   7       -9.613781
   8       -9.577950
   9       -7.471235
  10       -7.108680
  11       -5.807343
  12       -5.599435
  13        3.388301
  14        3.415179
  15        3.453890
  16        3.475081
  17        4.203802
  18        4.247672
  19        4.485103
  20        4.524028
  21        5.165727
  22        5.234410
  23        5.689398
  24        5.761585
  25        9.195196
  26        9.327519
  27        9.657800
  28        9.747193
  29        9.936811
  30       10.144821
  31       10.307685
  32       10.368153
  33       10.773061
  34       10.796876
  35       10.973664
  36       11.127478
 
 -0.8333333E-01 -0.4166667E+00 -0.8333333E-01  0.1157407E-02
   1      -34.526942
   2      -33.860876
   3      -15.854185
   4      -15.611827
   5      -10.958686
   6      -10.882300
   7       -9.613783
   8       -9.577948
   9       -7.471235
  10       -7.108680
  11       -5.807343
  12       -5.599434
  13        3.388301
  14        3.415179
  15        3.453891
  16        3.475081
  17        4.203803
  18        4.247669
  19        4.485099
  20        4.524030
  21        5.165727
  22        5.234410
  23        5.689398
  24        5.761585
  25        9.195196
  26        9.327519
  27        9.657800
  28        9.747193
  29        9.936811
  30       10.144821
  31       10.307685
  32       10.368153
  33       10.773061
  34       10.796875
  35       10.973664
  36       11.127474
 
  0.8333333E-01  0.8333333E-01  0.4166667E+00  0.1157407E-02
   1      -34.526919
   2      -33.860893
   3      -15.877755
   4      -15.585005
   5      -10.951447
   6      -10.901377
   7       -9.618236
   8       -9.572976
   9       -7.296856
  10       -7.281713
  11       -5.814820
  12       -5.585371