       N       E                     dE             d eps       ncg     rms          rms(c)

 E_p =  0.10000E+03  lambda =  0.100E+03
<lVp>=  0.00000E+00
 DBL =  0.10000E+03
 ion        MW_int                 M_int
  1  0.000  0.000  0.000    0.000  0.000  0.000
  2  0.000  0.000  0.000    0.000  0.000  0.000
  3  0.000  0.000  0.000    0.000  0.000  0.000
DAV:   1     0.387561585632E+03    0.38756E+03   -0.10503E+04 62208   0.142E+03

 E_p =  0.10000E+03  lambda =  0.100E+03
<lVp>=  0.00000E+00
 DBL =  0.10000E+03
 ion        MW_int                 M_int
  1  0.000  0.000  0.000    0.000  0.000  0.000
  2  0.000  0.000  0.000    0.000  0.000  0.000
  3  0.000  0.000  0.000    0.000  0.000  0.000
DAV:   2     0.121207790401E+03   -0.26635E+03   -0.24105E+03 66960   0.375E+02

 E_p =  0.10000E+03  lambda =  0.100E+03
<lVp>=  0.00000E+00
 DBL =  0.10000E+03
 ion        MW_int                 M_int
  1  0.000  0.000  0.000    0.000  0.000  0.000
  2  0.000  0.000  0.000    0.000  0.000  0.000
  3  0.000  0.000  0.000    0.000  0.000  0.000
DAV:   3     0.670571031814E+02   -0.54151E+02   -0.51466E+02 81016   0.168E+02

 E_p =  0.10000E+03  lambda =  0.100E+03
<lVp>=  0.00000E+00
 DBL =  0.10000E+03
 ion        MW_int                 M_int
  1  0.000  0.000  0.000    0.000  0.000  0.000
  2  0.000  0.000  0.000    0.000  0.000  0.000
  3  0.000  0.000  0.000    0.000  0.000  0.000
DAV:   4     0.629161553952E+02   -0.41409E+01   -0.40378E+01101432   0.436E+01

 E_p =  0.10000E+03  lambda =  0.100E+03
<lVp>=  0.00000E+00
 DBL =  0.10000E+03
 ion        MW_int                 M_int
  1  0.000  0.000  0.000    0.000  0.000  0.000
  2  0.000  0.000  0.000    0.000  0.000  0.000
  3  0.000  0.000  0.000    0.000  0.000  0.000
DAV:   5     0.626226943357E+02   -0.29346E+00   -0.29036E+00 98420   0.110E+01    0.110E+01

 E_p =  0.10000E+03  lambda =  0.100E+03
<lVp>=  0.00000E+00
 DBL =  0.10000E+03
 ion        MW_int                 M_int
  1  0.000  0.000  0.000    0.000  0.000  0.000
  2  0.000  0.000  0.000    0.000  0.000  0.000
  3  0.000  0.000  0.000    0.000  0.000  0.000
DAV:   6     0.648784995074E+02    0.22558E+01   -0.22694E+01 93948   0.334E+01    0.670E+00

 E_p =  0.10000E+03  lambda =  0.100E+03
<lVp>=  0.00000E+00
 DBL =  0.10000E+03
 ion        MW_int                 M_int
  1  0.000  0.000  0.000    0.000  0.000  0.000
  2  0.000  0.000  0.000    0.000  0.000  0.000
  3  0.000  0.000  0.000    0.000  0.000  0.000
DAV:   7     0.654027867970E+02    0.52429E+00   -0.43473E+00 91924   0.262E+01    0.226E+00

 E_p =  0.10000E+03  lambda =  0.100E+03
<lVp>=  0.00000E+00
 DBL =  0.10000E+03
 ion        MW_int                 M_int
  1  0.000  0.000  0.000    0.000  0.000  0.000
  2  0.000  0.000  0.000    0.000  0.000  0.000
  3  0.000  0.000  0.000    0.000  0.000  0.000
DAV:   8     0.654475144500E+02    0.44728E-01   -0.32548E-01 89336   0.491E+00    0.113E+00

 E_p =  0.10000E+03  lambda =  0.100E+03
<lVp>=  0.00000E+00
 DBL =  0.10000E+03
 ion        MW_int                 M_int
  1  0.000  0.000  0.000    0.000  0.000  0.000
  2  0.000  0.000  0.000    0.000  0.000  0.000
  3  0.000  0.000  0.000    0.000  0.000  0.000
DAV:   9     0.654563387949E+02    0.88243E-02   -0.13285E-01100212   0.246E+00    0.539E-01

 E_p =  0.10000E+03  lambda =  0.100E+03
<lVp>=  0.00000E+00
 DBL =  0.10000E+03
 ion        MW_int                 M_int
  1  0.000  0.000  0.000    0.000  0.000  0.000
  2  0.000  0.000  0.000    0.000  0.000  0.000
  3  0.000  0.000  0.000    0.000  0.000  0.000
DAV:  10     0.654589806517E+02    0.26419E-02   -0.21419E-02 98136   0.149E+00    0.162E-01

 E_p =  0.10000E+03  lambda =  0.100E+03
<lVp>=  0.00000E+00
 DBL =  0.10000E+03
 ion        MW_int                 M_int
  1  0.000  0.000  0.000    0.000  0.000  0.000
  2  0.000  0.000  0.000    0.000  0.000  0.000
  3  0.000  0.000  0.000    0.000  0.000  0.000
DAV:  11     0.654587464698E+02   -0.23418E-03   -0.54664E-03 89188   0.516E-01    0.133E-01

 E_p =  0.10000E+03  lambda =  0.100E+03
<lVp>=  0.00000E+00
 DBL =  0.10000E+03
 ion        MW_int                 M_int
  1  0.000  0.000  0.000    0.000  0.000  0.000
  2  0.000  0.000  0.000    0.000  0.000  0.000
  3  0.000  0.000  0.000    0.000  0.000  0.000
DAV:  12     0.654589637446E+02    0.21727E-03   -0.95785E-04 96792   0.296E-01    0.445E-02

 E_p =  0.10000E+03  lambda =  0.100E+03
<lVp>=  0.00000E+00
 DBL =  0.10000E+03
 ion        MW_int                 M_int
  1  0.000  0.000  0.000    0.000  0.000  0.000
  2  0.000  0.000  0.000    0.000  0.000  0.000
  3  0.000  0.000  0.000    0.000  0.000  0.000
DAV:  13     0.654589690509E+02    0.53063E-05   -0.16616E-04 90096   0.915E-02    0.129E-02

 E_p =  0.10000E+03  lambda =  0.100E+03
<lVp>=  0.00000E+00
 DBL =  0.10000E+03
 ion        MW_int                 M_int
  1  0.000  0.000  0.000    0.000  0.000  0.000
  2  0.000  0.000  0.000    0.000  0.000  0.000
  3  0.000  0.000  0.000    0.000  0.000  0.000
DAV:  14     0.654589662590E+02   -0.27919E-05   -0.10003E-05 74672   0.375E-02
   1 F= 0.65458966E+02 E0= 0.65458966E+02  d E =0.000000E+00  mag=    -0.0030    -0.0005     1.3597

 E_p =  0.10000E+03  lambda =  0.100E+03
 ion             lambda*MW_perp
  1   0.00000E+00   0.00000E+00  -0.10000E+03
