 vasp.5.3.2 13Sep12 (build Sep  9 2014 11:37:56) complex                        
  
 executed on             LinuxIFC date 2014.11.05  16:56:13
 running on    8 total cores
 distrk:  each k-point on    8 cores,    1 groups
 distr:  one band on NCORES_PER_BAND=   8 cores,    1 groups


--------------------------------------------------------------------------------------------------------


 INCAR:
 POTCAR:   PAW U 17Apr2000                        
 POTCAR:   PAW O 31May2000                        

 ----------------------------------------------------------------------------- 
|                                                                             |
|           W    W    AA    RRRRR   N    N  II  N    N   GGGG   !!!           |
|           W    W   A  A   R    R  NN   N  II  NN   N  G    G  !!!           |
|           W    W  A    A  R    R  N N  N  II  N N  N  G       !!!           |
|           W WW W  AAAAAA  RRRRR   N  N N  II  N  N N  G  GGG   !            |
|           WW  WW  A    A  R   R   N   NN  II  N   NN  G    G                |
|           W    W  A    A  R    R  N    N  II  N    N   GGGG   !!!           |
|                                                                             |
|      For optimal performance we recommend that you set                      |
|        NPAR = 4 - approx SQRT( number of cores)                             |
|      (number of cores/NPAR must be integer)                                 |
|      This setting will greatly improve the performance of VASP for DFT.     |
|      The default NPAR=number of cores might be grossly inefficient          |
|      on modern multi-core architectures or massively parallel machines.     |
|      Do your own testing.                                                   |
|      Unfortunately you need to use the default for hybrid, GW and RPA       |
|      calculations.                                                          |
|                                                                             |
 ----------------------------------------------------------------------------- 

 POTCAR:   PAW U 17Apr2000                        
   VRHFIN =U:  [Xe,5d,4f]                                                       
   LEXCH  = CA                                                                  
   EATOM  =  1409.7225 eV,  103.6117 Ry                                         
                                                                                
   TITEL  = PAW U 17Apr2000                                                     
   LULTRA =        F    use ultrasoft PP ?                                      
   IUNSCR =        1    unscreen: 0-lin 1-nonlin 2-no                           
   RPACOR =    2.200    partial core radius                                     
   POMASS =  238.029; ZVAL   =   14.000    mass and valenz                      
   RCORE  =    2.800    outmost cutoff radius                                   
   RWIGS  =    3.000; RWIGS  =    1.588    wigner-seitz radius (au A)           
   ENMAX  =  252.603; ENMIN  =  189.452 eV                                      
   RCLOC  =    1.811    cutoff for local pot                                    
   LCOR   =        T    correct aug charges                                     
   LPAW   =        T    paw PP                                                  
   EAUG   =  526.410                                                            
   DEXC   =     .000                                                            
   RMAX   =    2.901    core radius for proj-oper                               
   RAUG   =    1.300    factor for augmentation sphere                          
   RDEP   =    2.950    core radius for depl-charge                             
   QCUT   =   -4.309; QGAM   =    8.618    optimization parameters              
                                                                                
   Description                                                                  
     l     E      TYP  RCUT    TYP  RCUT                                        
     0   .000     23  2.600                                                     
     0   .000     23  2.600                                                     
     1   .000     23  2.500                                                     
     1  2.000     23  2.500                                                     
     2   .000     23  2.500                                                     
     2   .000     23  2.500                                                     
     3   .000     23  2.800                                                     
     3   .000     23  2.800                                                     
  local pseudopotential read in
  partial core-charges read in
  atomic valenz-charges read in
  non local Contribution for L=           0  read in
    real space projection operators read in
  non local Contribution for L=           0  read in
    real space projection operators read in
  non local Contribution for L=           1  read in
    real space projection operators read in
  non local Contribution for L=           1  read in
    real space projection operators read in
  non local Contribution for L=           2  read in
    real space projection operators read in
  non local Contribution for L=           2  read in
    real space projection operators read in
  non local Contribution for L=           3  read in
    real space projection operators read in
  non local Contribution for L=           3  read in
    real space projection operators read in
    PAW grid and wavefunctions read in
 
   number of l-projection  operators is LMAX  =           8
   number of lm-projection operators is LMMAX =          32
 
 POTCAR:   PAW O 31May2000                        
   VRHFIN =O: s2p4                                                              
   LEXCH  = CA                                                                  
   EATOM  =   431.4447 eV,   31.7103 Ry                                         
                                                                                
   TITEL  = PAW O 31May2000                                                     
   LULTRA =        F    use ultrasoft PP ?                                      
   IUNSCR =        0    unscreen: 0-lin 1-nonlin 2-no                           
   RPACOR =     .000    partial core radius                                     
   POMASS =   16.000; ZVAL   =    6.000    mass and valenz                      
   RCORE  =    1.520    outmost cutoff radius                                   
   RWIGS  =    1.550; RWIGS  =     .820    wigner-seitz radius (au A)           
   ENMAX  =  400.000; ENMIN  =  300.000 eV                                      
   ICORE  =        2    local potential                                         
   LCOR   =        T    correct aug charges                                     
   LPAW   =        T    paw PP                                                  
   EAUG   =  605.392                                                            
   DEXC   =     .000                                                            
   RMAX   =    2.265    core radius for proj-oper                               
   RAUG   =    1.300    factor for augmentation sphere                          
   RDEP   =    1.550    radius for radial grids                                 
   QCUT   =   -5.518; QGAM   =   11.037    optimization parameters              
                                                                                
   Description                                                                  
     l     E      TYP  RCUT    TYP  RCUT                                        
     0   .000     23  1.200                                                     
     0  -.700     23  1.200                                                     
     1   .000     23  1.520                                                     
     1   .600     23  1.520                                                     
     2   .000      7  1.500                                                     
  local pseudopotential read in
  atomic valenz-charges read in
  non local Contribution for L=           0  read in
    real space projection operators read in
  non local Contribution for L=           0  read in
    real space projection operators read in
  non local Contribution for L=           1  read in
    real space projection operators read in
  non local Contribution for L=           1  read in
    real space projection operators read in
    PAW grid and wavefunctions read in
 
   number of l-projection  operators is LMAX  =           4
   number of lm-projection operators is LMMAX =           8
 
 PAW U 17Apr2000                        :
 energy of atom  1       EATOM=-1409.7225
 kinetic energy error for atom=    0.0035 (will be added to EATOM!!)
 PAW O 31May2000                        :
 energy of atom  2       EATOM= -431.4447
 kinetic energy error for atom=    0.0704 (will be added to EATOM!!)
 
 
 POSCAR: U1 O2                                   
  positions in direct lattice
  No initial velocities read in
 exchange correlation table for  LEXCH =        2
   RHO(1)=    0.500       N(1)  =     2000
   RHO(2)=  100.500       N(2)  =     4000
 


--------------------------------------------------------------------------------------------------------


 ion  position               nearest neighbor table
   1  0.000  0.000  0.000-   2 2.37   2 2.37   2 2.37   2 2.37   3 2.37   3 2.37   3 2.37   3 2.37

   2  0.750  0.750  0.750-   1 2.37   1 2.37   1 2.37   1 2.37
   3  0.250  0.250  0.250-   1 2.37   1 2.37   1 2.37   1 2.37
 

IMPORTANT INFORMATION: All symmetrisations will be switched off!
NOSYMM: (Re-)initialisation of all symmetry stuff for point group C_1.

 
 
 KPOINTS: Monkhost Pack                           

Automatic generation of k-mesh.
Space group operators:
 irot       det(A)        alpha          n_x          n_y          n_z        tau_x        tau_y        tau_z
    1     1.000000     0.000000     1.000000     0.000000     0.000000     0.000000     0.000000     0.000000
 
 Subroutine IBZKPT returns following result:
 ===========================================
 
 Found    864 irreducible k-points:
 
 Following reciprocal coordinates:
            Coordinates               Weight
  0.083333  0.083333  0.083333     12.000000
 -0.083333 -0.083333 -0.083333     12.000000
  0.083333  0.000000  0.000000     12.000000
 -0.083333  0.000000  0.000000     12.000000
  0.000000  0.000000 -0.083333     12.000000
  0.000000  0.000000  0.083333     12.000000
  0.000000  0.083333  0.000000     12.000000
  0.000000 -0.083333  0.000000     12.000000
  0.250000  0.083333  0.083333     12.000000
 -0.250000 -0.083333 -0.083333     12.000000
  0.083333  0.250000  0.083333     12.000000
 -0.083333 -0.250000 -0.083333     12.000000
  0.083333  0.083333  0.250000     12.000000
 -0.083333 -0.083333 -0.250000     12.000000
  0.083333  0.000000 -0.166667     12.000000
 -0.083333  0.000000  0.166667     12.000000
  0.250000  0.166667  0.166667     12.000000
 -0.250000 -0.166667 -0.166667     12.000000
  0.083333 -0.166667  0.000000     12.000000
 -0.083333  0.166667  0.000000     12.000000
  0.000000  0.166667 -0.083333     12.000000
  0.000000 -0.166667  0.083333     12.000000
  0.166667  0.000000 -0.083333     12.000000
 -0.166667  0.000000  0.083333     12.000000
 -0.166667 -0.166667 -0.250000     12.000000
  0.166667  0.166667  0.250000     12.000000
  0.166667  0.250000  0.166667     12.000000
 -0.166667 -0.250000 -0.166667     12.000000
  0.000000  0.083333 -0.166667     12.000000
  0.000000 -0.083333  0.166667     12.000000
 -0.166667  0.083333  0.000000     12.000000
  0.166667 -0.083333  0.000000     12.000000
  0.416667  0.083333  0.083333     12.000000
 -0.416667 -0.083333 -0.083333     12.000000
  0.083333  0.416667  0.083333     12.000000
 -0.083333 -0.416667 -0.083333     12.000000
  0.083333  0.083333  0.416667     12.000000
 -0.083333 -0.083333 -0.416667     12.000000
  0.083333  0.000000 -0.333333     12.000000
 -0.083333  0.000000  0.333333     12.000000
  0.416667  0.333333  0.333333     12.000000
 -0.416667 -0.333333 -0.333333     12.000000
  0.083333 -0.333333  0.000000     12.000000
 -0.083333  0.333333  0.000000     12.000000
  0.000000  0.333333 -0.083333     12.000000
  0.000000 -0.333333  0.083333     12.000000
  0.333333  0.000000 -0.083333     12.000000
 -0.333333  0.000000  0.083333     12.000000
 -0.333333 -0.333333 -0.416667     12.000000
  0.333333  0.333333  0.416667     12.000000
  0.333333  0.416667  0.333333     12.000000
 -0.333333 -0.416667 -0.333333     12.000000
  0.000000  0.083333 -0.333333     12.000000
  0.000000 -0.083333  0.333333     12.000000
 -0.333333  0.083333  0.000000     12.000000
  0.333333 -0.083333  0.000000     12.000000
 -0.416667  0.083333  0.083333     12.000000
  0.416667 -0.083333 -0.083333     12.000000
  0.083333 -0.416667  0.083333     12.000000
 -0.083333  0.416667 -0.083333     12.000000
  0.083333  0.083333 -0.416667     12.000000
 -0.083333 -0.083333  0.416667     12.000000
  0.083333  0.000000  0.500000     12.000000
 -0.083333  0.000000  0.500000     12.000000
 -0.416667  0.500000  0.500000     12.000000
  0.416667  0.500000  0.500000     12.000000
  0.083333  0.500000  0.000000     12.000000
 -0.083333  0.500000  0.000000     12.000000
  0.000000  0.500000 -0.083333     12.000000
  0.000000  0.500000  0.083333     12.000000
  0.500000  0.000000 -0.083333     12.000000
  0.500000  0.000000  0.083333     12.000000
  0.500000  0.500000  0.416667     12.000000
  0.500000  0.500000 -0.416667     12.000000
  0.500000 -0.416667  0.500000     12.000000
  0.500000  0.416667  0.500000     12.000000
  0.000000  0.083333  0.500000     12.000000
  0.000000 -0.083333  0.500000     12.000000
  0.500000  0.083333  0.000000     12.000000
  0.500000 -0.083333  0.000000     12.000000
 -0.250000  0.083333  0.083333     12.000000
  0.250000 -0.083333 -0.083333     12.000000
  0.083333 -0.250000  0.083333     12.000000
 -0.083333  0.250000 -0.083333     12.000000
  0.083333  0.083333 -0.250000     12.000000
 -0.083333 -0.083333  0.250000     12.000000
  0.083333  0.000000  0.333333     12.000000
 -0.083333  0.000000 -0.333333     12.000000
 -0.250000 -0.333333 -0.333333     12.000000
  0.250000  0.333333  0.333333     12.000000
  0.083333  0.333333  0.000000     12.000000
 -0.083333 -0.333333  0.000000     12.000000
  0.000000 -0.333333 -0.083333     12.000000
  0.000000  0.333333  0.083333     12.000000
 -0.333333  0.000000 -0.083333     12.000000
  0.333333  0.000000  0.083333     12.000000
  0.333333  0.333333  0.250000     12.000000
 -0.333333 -0.333333 -0.250000     12.000000
 -0.333333 -0.250000 -0.333333     12.000000
  0.333333  0.250000  0.333333     12.000000
  0.000000  0.083333  0.333333     12.000000
  0.000000 -0.083333 -0.333333     12.000000
  0.333333  0.083333  0.000000     12.000000
 -0.333333 -0.083333  0.000000     12.000000
 -0.083333  0.083333  0.083333     12.000000
  0.083333 -0.083333 -0.083333     12.000000
  0.083333 -0.083333  0.083333     12.000000
 -0.083333  0.083333 -0.083333     12.000000
  0.083333  0.083333 -0.083333     12.000000
 -0.083333 -0.083333  0.083333     12.000000
  0.083333  0.000000  0.166667     12.000000
 -0.083333  0.000000 -0.166667     12.000000
 -0.083333 -0.166667 -0.166667     12.000000
  0.083333  0.166667  0.166667     12.000000
  0.083333  0.166667  0.000000     12.000000
 -0.083333 -0.166667  0.000000     12.000000
  0.000000 -0.166667 -0.083333     12.000000
  0.000000  0.166667  0.083333     12.000000
 -0.166667  0.000000 -0.083333     12.000000
  0.166667  0.000000  0.083333     12.000000
  0.166667  0.166667  0.083333     12.000000
 -0.166667 -0.166667 -0.083333     12.000000
 -0.166667 -0.083333 -0.166667     12.000000
  0.166667  0.083333  0.166667     12.000000
  0.000000  0.083333  0.166667     12.000000
  0.000000 -0.083333 -0.166667     12.000000
  0.166667  0.083333  0.000000     12.000000
 -0.166667 -0.083333  0.000000     12.000000
  0.250000  0.250000  0.083333     12.000000
 -0.250000 -0.250000 -0.083333     12.000000
  0.083333  0.250000  0.250000     12.000000
 -0.083333 -0.250000 -0.250000     12.000000
  0.250000  0.083333  0.250000     12.000000
 -0.250000 -0.083333 -0.250000     12.000000
  0.250000  0.166667  0.000000     12.000000
 -0.250000 -0.166667  0.000000     12.000000
  0.250000  0.000000  0.166667     12.000000
 -0.250000  0.000000 -0.166667     12.000000
  0.083333 -0.166667 -0.166667     12.000000
 -0.083333  0.166667  0.166667     12.000000
  0.166667  0.166667 -0.083333     12.000000
 -0.166667 -0.166667  0.083333     12.000000
  0.000000 -0.166667 -0.250000     12.000000
  0.000000  0.166667  0.250000     12.000000
 -0.166667  0.000000 -0.250000     12.000000
  0.166667  0.000000  0.250000     12.000000
  0.166667  0.250000  0.000000     12.000000
 -0.166667 -0.250000  0.000000     12.000000
 -0.166667  0.083333 -0.166667     12.000000
  0.166667 -0.083333  0.166667     12.000000
  0.000000  0.250000  0.166667     12.000000
  0.000000 -0.250000 -0.166667     12.000000
  0.416667  0.250000  0.083333     12.000000
 -0.416667 -0.250000 -0.083333     12.000000
  0.083333  0.416667  0.250000     12.000000
 -0.083333 -0.416667 -0.250000     12.000000
  0.250000  0.083333  0.416667     12.000000
 -0.250000 -0.083333 -0.416667     12.000000
  0.250000  0.166667 -0.166667     12.000000
 -0.250000 -0.166667  0.166667     12.000000
  0.416667  0.166667  0.333333     12.000000
 -0.416667 -0.166667 -0.333333     12.000000
  0.083333 -0.333333 -0.166667     12.000000
 -0.083333  0.333333  0.166667     12.000000
  0.166667  0.333333 -0.083333     12.000000
 -0.166667 -0.333333  0.083333     12.000000
  0.166667 -0.166667 -0.250000     12.000000
 -0.166667  0.166667  0.250000     12.000000
 -0.333333 -0.166667 -0.416667     12.000000
  0.333333  0.166667  0.416667     12.000000
  0.333333  0.416667  0.166667     12.000000
 -0.333333 -0.416667 -0.166667     12.000000
 -0.166667  0.083333 -0.333333     12.000000
  0.166667 -0.083333  0.333333     12.000000
 -0.166667  0.250000  0.166667     12.000000
  0.166667 -0.250000 -0.166667     12.000000
 -0.083333  0.166667  0.333333     12.000000
  0.083333 -0.166667 -0.333333     12.000000
 -0.250000  0.166667 -0.166667     12.000000
  0.250000 -0.166667  0.166667     12.000000
 -0.416667 -0.333333 -0.166667     12.000000
  0.416667  0.333333  0.166667     12.000000
  0.166667  0.333333  0.416667     12.000000
 -0.166667 -0.333333 -0.416667     12.000000
 -0.333333 -0.166667  0.083333     12.000000
  0.333333  0.166667 -0.083333     12.000000
  0.166667 -0.166667  0.250000     12.000000
 -0.166667  0.166667 -0.250000     12.000000
  0.333333 -0.083333  0.166667     12.000000
 -0.333333  0.083333 -0.166667     12.000000
 -0.166667 -0.250000  0.166667     12.000000
  0.166667  0.250000 -0.166667     12.000000
 -0.166667 -0.416667 -0.333333     12.000000
  0.166667  0.416667  0.333333     12.000000
 -0.416667 -0.083333 -0.250000     12.000000
  0.416667  0.083333  0.250000     12.000000
 -0.250000 -0.416667 -0.083333     12.000000
  0.250000  0.416667  0.083333     12.000000
 -0.083333 -0.250000 -0.416667     12.000000
  0.083333  0.250000  0.416667     12.000000
 -0.416667  0.250000  0.083333     12.000000
  0.416667 -0.250000 -0.083333     12.000000
  0.083333 -0.416667  0.250000     12.000000
 -0.083333  0.416667 -0.250000     12.000000
  0.250000  0.083333 -0.416667     12.000000
 -0.250000 -0.083333  0.416667     12.000000
  0.250000  0.166667 -0.333333     12.000000
 -0.250000 -0.166667  0.333333     12.000000
 -0.416667  0.333333  0.500000     12.000000
  0.416667 -0.333333  0.500000     12.000000
  0.083333  0.500000 -0.166667     12.000000
 -0.083333  0.500000  0.166667     12.000000
  0.166667  0.500000 -0.083333     12.000000
 -0.166667  0.500000  0.083333     12.000000
  0.333333 -0.166667 -0.250000     12.000000
 -0.333333  0.166667  0.250000     12.000000
  0.500000 -0.333333  0.416667     12.000000
  0.500000  0.333333 -0.416667     12.000000
  0.500000 -0.416667  0.333333     12.000000
  0.500000  0.416667 -0.333333     12.000000
 -0.166667  0.083333  0.500000     12.000000
  0.166667 -0.083333  0.500000     12.000000
 -0.333333  0.250000  0.166667     12.000000
  0.333333 -0.250000 -0.166667     12.000000
 -0.083333  0.166667  0.500000     12.000000
  0.083333 -0.166667  0.500000     12.000000
 -0.250000  0.333333 -0.166667     12.000000
  0.250000 -0.333333  0.166667     12.000000
  0.416667  0.500000 -0.333333     12.000000
 -0.416667  0.500000  0.333333     12.000000
  0.333333  0.500000 -0.416667     12.000000
 -0.333333  0.500000  0.416667     12.000000
  0.500000 -0.166667  0.083333     12.000000
  0.500000  0.166667 -0.083333     12.000000
  0.166667 -0.333333  0.250000     12.000000
 -0.166667  0.333333 -0.250000     12.000000
  0.500000 -0.083333  0.166667     12.000000
  0.500000  0.083333 -0.166667     12.000000
 -0.166667 -0.250000  0.333333     12.000000
  0.166667  0.250000 -0.333333     12.000000
 -0.333333  0.416667  0.500000     12.000000
  0.333333 -0.416667  0.500000     12.000000
  0.416667 -0.083333 -0.250000     12.000000
 -0.416667  0.083333  0.250000     12.000000
 -0.250000  0.416667 -0.083333     12.000000
  0.250000 -0.416667  0.083333     12.000000
 -0.083333 -0.250000  0.416667     12.000000
  0.083333  0.250000 -0.416667     12.000000
 -0.250000  0.250000  0.083333     12.000000
  0.250000 -0.250000 -0.083333     12.000000
  0.083333 -0.250000  0.250000     12.000000
 -0.083333  0.250000 -0.250000     12.000000
  0.250000  0.083333 -0.250000     12.000000
 -0.250000 -0.083333  0.250000     12.000000
  0.250000  0.166667  0.500000     12.000000
 -0.250000 -0.166667  0.500000     12.000000
 -0.250000  0.500000 -0.333333     12.000000
  0.250000  0.500000  0.333333     12.000000
  0.083333  0.333333 -0.166667     12.000000
 -0.083333 -0.333333  0.166667     12.000000
  0.166667 -0.333333 -0.083333     12.000000
 -0.166667  0.333333  0.083333     12.000000
  0.500000 -0.166667 -0.250000     12.000000
  0.500000  0.166667  0.250000     12.000000
  0.333333  0.500000  0.250000     12.000000
 -0.333333  0.500000 -0.250000     12.000000
 -0.333333 -0.250000  0.500000     12.000000
  0.333333  0.250000  0.500000     12.000000
 -0.166667  0.083333  0.333333     12.000000
  0.166667 -0.083333 -0.333333     12.000000
  0.500000  0.250000  0.166667     12.000000
  0.500000 -0.250000 -0.166667     12.000000
 -0.083333  0.166667 -0.333333     12.000000
  0.083333 -0.166667  0.333333     12.000000
 -0.250000  0.500000 -0.166667     12.000000
  0.250000  0.500000  0.166667     12.000000
  0.250000  0.333333  0.500000     12.000000
 -0.250000 -0.333333  0.500000     12.000000
  0.500000 -0.333333 -0.250000     12.000000
  0.500000  0.333333  0.250000     12.000000
  0.333333 -0.166667  0.083333     12.000000
 -0.333333  0.166667 -0.083333     12.000000
  0.166667  0.500000  0.250000     12.000000
 -0.166667  0.500000 -0.250000     12.000000
 -0.333333 -0.083333  0.166667     12.000000
  0.333333  0.083333 -0.166667     12.000000
 -0.166667 -0.250000  0.500000     12.000000
  0.166667  0.250000  0.500000     12.000000
  0.500000  0.250000  0.333333     12.000000
  0.500000 -0.250000 -0.333333     12.000000
  0.250000 -0.083333 -0.250000     12.000000
 -0.250000  0.083333  0.250000     12.000000
 -0.250000  0.250000 -0.083333     12.000000
  0.250000 -0.250000  0.083333     12.000000
 -0.083333 -0.250000  0.250000     12.000000
  0.083333  0.250000 -0.250000     12.000000
 -0.083333  0.250000  0.083333     12.000000
  0.083333 -0.250000 -0.083333     12.000000
  0.083333 -0.083333  0.250000     12.000000
 -0.083333  0.083333 -0.250000     12.000000
  0.250000  0.083333 -0.083333     12.000000
 -0.250000 -0.083333  0.083333     12.000000
  0.250000  0.166667  0.333333     12.000000
 -0.250000 -0.166667 -0.333333     12.000000
 -0.083333 -0.333333 -0.166667     12.000000
  0.083333  0.333333  0.166667     12.000000
  0.083333  0.166667 -0.166667     12.000000
 -0.083333 -0.166667  0.166667     12.000000
  0.166667 -0.166667 -0.083333     12.000000
 -0.166667  0.166667  0.083333     12.000000
 -0.333333 -0.166667 -0.250000     12.000000
  0.333333  0.166667  0.250000     12.000000
  0.166667  0.333333  0.083333     12.000000
 -0.166667 -0.333333 -0.083333     12.000000
 -0.166667 -0.083333 -0.333333     12.000000
  0.166667  0.083333  0.333333     12.000000
 -0.166667  0.083333  0.166667     12.000000
  0.166667 -0.083333 -0.166667     12.000000
  0.333333  0.250000  0.166667     12.000000
 -0.333333 -0.250000 -0.166667     12.000000
 -0.083333  0.166667 -0.166667     12.000000
  0.083333 -0.166667  0.166667     12.000000
 -0.250000 -0.333333 -0.166667     12.000000
  0.250000  0.333333  0.166667     12.000000
  0.083333  0.166667  0.333333     12.000000
 -0.083333 -0.166667 -0.333333     12.000000
 -0.333333 -0.166667 -0.083333     12.000000
  0.333333  0.166667  0.083333     12.000000
  0.166667 -0.166667  0.083333     12.000000
 -0.166667  0.166667 -0.083333     12.000000
  0.166667  0.333333  0.250000     12.000000
 -0.166667 -0.333333 -0.250000     12.000000
 -0.166667 -0.083333  0.166667     12.000000
  0.166667  0.083333 -0.166667     12.000000
 -0.166667 -0.250000 -0.333333     12.000000
  0.166667  0.250000  0.333333     12.000000
  0.333333  0.083333  0.166667     12.000000
 -0.333333 -0.083333 -0.166667     12.000000
  0.083333 -0.083333 -0.250000     12.000000
 -0.083333  0.083333  0.250000     12.000000
 -0.250000  0.083333 -0.083333     12.000000
  0.250000 -0.083333  0.083333     12.000000
 -0.083333 -0.250000  0.083333     12.000000
  0.083333  0.250000 -0.083333     12.000000
  0.416667  0.416667  0.083333     12.000000
 -0.416667 -0.416667 -0.083333     12.000000
  0.083333  0.416667  0.416667     12.000000
 -0.083333 -0.416667 -0.416667     12.000000
  0.416667  0.083333  0.416667     12.000000
 -0.416667 -0.083333 -0.416667     12.000000
  0.416667  0.333333  0.000000     12.000000
 -0.416667 -0.333333  0.000000     12.000000
  0.416667  0.000000  0.333333     12.000000
 -0.416667  0.000000 -0.333333     12.000000
  0.083333 -0.333333 -0.333333     12.000000
 -0.083333  0.333333  0.333333     12.000000
  0.333333  0.333333 -0.083333     12.000000
 -0.333333 -0.333333  0.083333     12.000000
  0.000000 -0.333333 -0.416667     12.000000
  0.000000  0.333333  0.416667     12.000000
 -0.333333  0.000000 -0.416667     12.000000
  0.333333  0.000000  0.416667     12.000000
  0.333333  0.416667  0.000000     12.000000
 -0.333333 -0.416667  0.000000     12.000000
 -0.333333  0.083333 -0.333333     12.000000
  0.333333 -0.083333  0.333333     12.000000
  0.000000  0.416667  0.333333     12.000000
  0.000000 -0.416667 -0.333333     12.000000
 -0.416667  0.416667  0.083333     12.000000
  0.416667 -0.416667 -0.083333     12.000000
  0.083333 -0.416667  0.416667     12.000000
 -0.083333  0.416667 -0.416667     12.000000
  0.416667  0.083333 -0.416667     12.000000
 -0.416667 -0.083333  0.416667     12.000000
  0.416667  0.333333 -0.166667     12.000000
 -0.416667 -0.333333  0.166667     12.000000
 -0.416667  0.166667  0.500000     12.000000
  0.416667 -0.166667  0.500000     12.000000
  0.083333  0.500000 -0.333333     12.000000
 -0.083333  0.500000  0.333333     12.000000
  0.333333  0.500000 -0.083333     12.000000
 -0.333333  0.500000  0.083333     12.000000
  0.166667 -0.333333 -0.416667     12.000000
 -0.166667  0.333333  0.416667     12.000000
  0.500000 -0.166667  0.416667     12.000000
  0.500000  0.166667 -0.416667     12.000000
  0.500000 -0.416667  0.166667     12.000000
  0.500000  0.416667 -0.166667     12.000000
 -0.333333  0.083333  0.500000     12.000000
  0.333333 -0.083333  0.500000     12.000000
 -0.166667  0.416667  0.333333     12.000000
  0.166667 -0.416667 -0.333333     12.000000
 -0.083333  0.333333  0.500000     12.000000
  0.083333 -0.333333  0.500000     12.000000
 -0.416667  0.166667 -0.333333     12.000000
  0.416667 -0.166667  0.333333     12.000000
  0.416667  0.500000 -0.166667     12.000000
 -0.416667  0.500000  0.166667     12.000000
  0.166667  0.500000 -0.416667     12.000000
 -0.166667  0.500000  0.416667     12.000000
  0.500000 -0.333333  0.083333     12.000000
  0.500000  0.333333 -0.083333     12.000000
  0.333333 -0.166667  0.416667     12.000000
 -0.333333  0.166667 -0.416667     12.000000
  0.500000 -0.083333  0.333333     12.000000
  0.500000  0.083333 -0.333333     12.000000
 -0.333333 -0.416667  0.166667     12.000000
  0.333333  0.416667 -0.166667     12.000000
 -0.166667  0.416667  0.500000     12.000000
  0.166667 -0.416667  0.500000     12.000000
  0.416667 -0.083333 -0.416667     12.000000
 -0.416667  0.083333  0.416667     12.000000
 -0.416667  0.416667 -0.083333     12.000000
  0.416667 -0.416667  0.083333     12.000000
 -0.083333 -0.416667  0.416667     12.000000
  0.083333  0.416667 -0.416667     12.000000
 -0.250000  0.416667  0.083333     12.000000
  0.250000 -0.416667 -0.083333     12.000000
  0.083333 -0.250000  0.416667     12.000000
 -0.083333  0.250000 -0.416667     12.000000
  0.416667  0.083333 -0.250000     12.000000
 -0.416667 -0.083333  0.250000     12.000000
  0.416667  0.333333 -0.333333     12.000000
 -0.416667 -0.333333  0.333333     12.000000
 -0.250000  0.333333 -0.333333     12.000000
  0.250000 -0.333333  0.333333     12.000000
  0.083333  0.333333 -0.333333     12.000000
 -0.083333 -0.333333  0.333333     12.000000
  0.333333 -0.333333 -0.083333     12.000000
 -0.333333  0.333333  0.083333     12.000000
  0.333333 -0.333333 -0.416667     12.000000
 -0.333333  0.333333  0.416667     12.000000
  0.333333 -0.333333  0.250000     12.000000
 -0.333333  0.333333 -0.250000     12.000000
 -0.333333 -0.250000  0.333333     12.000000
  0.333333  0.250000 -0.333333     12.000000
 -0.333333  0.083333  0.333333     12.000000
  0.333333 -0.083333 -0.333333     12.000000
 -0.333333  0.416667  0.333333     12.000000
  0.333333 -0.416667 -0.333333     12.000000
 -0.083333  0.333333 -0.333333     12.000000
  0.083333 -0.333333  0.333333     12.000000
 -0.416667  0.333333 -0.333333     12.000000
  0.416667 -0.333333  0.333333     12.000000
  0.250000  0.333333 -0.333333     12.000000
 -0.250000 -0.333333  0.333333     12.000000
  0.333333 -0.333333 -0.250000     12.000000
 -0.333333  0.333333  0.250000     12.000000
  0.333333 -0.333333  0.083333     12.000000
 -0.333333  0.333333 -0.083333     12.000000
  0.333333 -0.333333  0.416667     12.000000
 -0.333333  0.333333 -0.416667     12.000000
 -0.333333 -0.083333  0.333333     12.000000
  0.333333  0.083333 -0.333333     12.000000
 -0.333333 -0.416667  0.333333     12.000000
  0.333333  0.416667 -0.333333     12.000000
 -0.333333  0.250000  0.333333     12.000000
  0.333333 -0.250000 -0.333333     12.000000
  0.250000 -0.083333 -0.416667     12.000000
 -0.250000  0.083333  0.416667     12.000000
 -0.416667  0.250000 -0.083333     12.000000
  0.416667 -0.250000  0.083333     12.000000
 -0.083333 -0.416667  0.250000     12.000000
  0.083333  0.416667 -0.250000     12.000000
 -0.083333  0.416667  0.083333     12.000000
  0.083333 -0.416667 -0.083333     12.000000
  0.083333 -0.083333  0.416667     12.000000
 -0.083333  0.083333 -0.416667     12.000000
  0.416667  0.083333 -0.083333     12.000000
 -0.416667 -0.083333  0.083333     12.000000
  0.416667  0.333333  0.500000     12.000000
 -0.416667 -0.333333  0.500000     12.000000
 -0.083333  0.500000 -0.166667     12.000000
  0.083333  0.500000  0.166667     12.000000
  0.083333  0.166667 -0.333333     12.000000
 -0.083333 -0.166667  0.333333     12.000000
  0.333333 -0.166667 -0.083333     12.000000
 -0.333333  0.166667  0.083333     12.000000
  0.500000 -0.333333 -0.416667     12.000000
  0.500000  0.333333  0.416667     12.000000
  0.166667  0.500000  0.083333     12.000000
 -0.166667  0.500000 -0.083333     12.000000
 -0.166667 -0.083333  0.500000     12.000000
  0.166667  0.083333  0.500000     12.000000
 -0.333333  0.083333  0.166667     12.000000
  0.333333 -0.083333 -0.166667     12.000000
  0.500000  0.416667  0.333333     12.000000
  0.500000 -0.416667 -0.333333     12.000000
 -0.083333  0.333333 -0.166667     12.000000
  0.083333 -0.333333  0.166667     12.000000
 -0.416667  0.500000 -0.333333     12.000000
  0.416667  0.500000  0.333333     12.000000
  0.083333  0.166667  0.500000     12.000000
 -0.083333 -0.166667  0.500000     12.000000
  0.500000 -0.166667 -0.083333     12.000000
  0.500000  0.166667  0.083333     12.000000
  0.166667 -0.333333  0.083333     12.000000
 -0.166667  0.333333 -0.083333     12.000000
  0.333333  0.500000  0.416667     12.000000
 -0.333333  0.500000 -0.416667     12.000000
 -0.166667 -0.083333  0.333333     12.000000
  0.166667  0.083333 -0.333333     12.000000
 -0.333333 -0.416667  0.500000     12.000000
  0.333333  0.416667  0.500000     12.000000
  0.500000  0.083333  0.166667     12.000000
  0.500000 -0.083333 -0.166667     12.000000
  0.083333 -0.083333 -0.416667     12.000000
 -0.083333  0.083333  0.416667     12.000000
 -0.416667  0.083333 -0.083333     12.000000
  0.416667 -0.083333  0.083333     12.000000
 -0.083333 -0.416667  0.083333     12.000000
  0.083333  0.416667 -0.083333     12.000000
 -0.416667 -0.416667  0.083333     12.000000
  0.416667  0.416667 -0.083333     12.000000
  0.083333 -0.416667 -0.416667     12.000000
 -0.083333  0.416667  0.416667     12.000000
 -0.416667  0.083333 -0.416667     12.000000
  0.416667 -0.083333  0.416667     12.000000
 -0.416667  0.500000  0.000000     12.000000
  0.416667  0.500000  0.000000     12.000000
 -0.416667  0.000000  0.500000     12.000000
  0.416667  0.000000  0.500000     12.000000
  0.083333  0.500000  0.500000     12.000000
 -0.083333  0.500000  0.500000     12.000000
  0.500000  0.500000 -0.083333     12.000000
  0.500000  0.500000  0.083333     12.000000
  0.000000  0.500000  0.416667     12.000000
  0.000000  0.500000 -0.416667     12.000000
  0.500000  0.000000  0.416667     12.000000
  0.500000  0.000000 -0.416667     12.000000
  0.500000 -0.416667  0.000000     12.000000
  0.500000  0.416667  0.000000     12.000000
  0.500000  0.083333  0.500000     12.000000
  0.500000 -0.083333  0.500000     12.000000
  0.000000 -0.416667  0.500000     12.000000
  0.000000  0.416667  0.500000     12.000000
 -0.250000 -0.416667  0.083333     12.000000
  0.250000  0.416667 -0.083333     12.000000
  0.083333 -0.250000 -0.416667     12.000000
 -0.083333  0.250000  0.416667     12.000000
 -0.416667  0.083333 -0.250000     12.000000
  0.416667 -0.083333  0.250000     12.000000
 -0.416667  0.500000 -0.166667     12.000000
  0.416667  0.500000  0.166667     12.000000
 -0.250000  0.166667 -0.333333     12.000000
  0.250000 -0.166667  0.333333     12.000000
  0.083333  0.333333  0.500000     12.000000
 -0.083333 -0.333333  0.500000     12.000000
  0.500000 -0.333333 -0.083333     12.000000
  0.500000  0.333333  0.083333     12.000000
  0.166667  0.500000  0.416667     12.000000
 -0.166667  0.500000 -0.416667     12.000000
  0.333333 -0.166667  0.250000     12.000000
 -0.333333  0.166667 -0.250000     12.000000
 -0.333333 -0.250000  0.166667     12.000000
  0.333333  0.250000 -0.166667     12.000000
  0.500000  0.083333  0.333333     12.000000
  0.500000 -0.083333 -0.333333     12.000000
 -0.166667 -0.416667  0.500000     12.000000
  0.166667  0.416667  0.500000     12.000000
 -0.083333  0.500000 -0.333333     12.000000
  0.083333  0.500000  0.333333     12.000000
  0.416667  0.166667  0.500000     12.000000
 -0.416667 -0.166667  0.500000     12.000000
  0.250000  0.333333 -0.166667     12.000000
 -0.250000 -0.333333  0.166667     12.000000
  0.166667 -0.333333 -0.250000     12.000000
 -0.166667  0.333333  0.250000     12.000000
  0.333333  0.500000  0.083333     12.000000
 -0.333333  0.500000 -0.083333     12.000000
  0.500000 -0.166667 -0.416667     12.000000
  0.500000  0.166667  0.416667     12.000000
 -0.333333 -0.083333  0.500000     12.000000
  0.333333  0.083333  0.500000     12.000000
  0.500000  0.416667  0.166667     12.000000
  0.500000 -0.416667 -0.166667     12.000000
 -0.166667  0.250000  0.333333     12.000000
  0.166667 -0.250000 -0.333333     12.000000
  0.250000 -0.083333  0.416667     12.000000
 -0.250000  0.083333 -0.416667     12.000000
  0.416667  0.250000 -0.083333     12.000000
 -0.416667 -0.250000  0.083333     12.000000
 -0.083333  0.416667  0.250000     12.000000
  0.083333 -0.416667 -0.250000     12.000000
 -0.250000 -0.250000  0.083333     12.000000
  0.250000  0.250000 -0.083333     12.000000
  0.083333 -0.250000 -0.250000     12.000000
 -0.083333  0.250000  0.250000     12.000000
 -0.250000  0.083333 -0.250000     12.000000
  0.250000 -0.083333  0.250000     12.000000
 -0.250000 -0.333333  0.000000     12.000000
  0.250000  0.333333  0.000000     12.000000
 -0.250000  0.000000 -0.333333     12.000000
  0.250000  0.000000  0.333333     12.000000
  0.083333  0.333333  0.333333     12.000000
 -0.083333 -0.333333 -0.333333     12.000000
 -0.333333 -0.333333 -0.083333     12.000000
  0.333333  0.333333  0.083333     12.000000
  0.000000  0.333333  0.250000     12.000000
  0.000000 -0.333333 -0.250000     12.000000
  0.333333  0.000000  0.250000     12.000000
 -0.333333  0.000000 -0.250000     12.000000
 -0.333333 -0.250000  0.000000     12.000000
  0.333333  0.250000  0.000000     12.000000
  0.333333  0.083333  0.333333     12.000000
 -0.333333 -0.083333 -0.333333     12.000000
  0.000000 -0.250000 -0.333333     12.000000
  0.000000  0.250000  0.333333     12.000000
  0.250000  0.250000  0.250000     12.000000
 -0.250000 -0.250000 -0.250000     12.000000
  0.250000  0.000000  0.000000     12.000000
 -0.250000  0.000000  0.000000     12.000000
  0.000000  0.000000 -0.250000     12.000000
  0.000000  0.000000  0.250000     12.000000
  0.000000  0.250000  0.000000     12.000000
  0.000000 -0.250000  0.000000     12.000000
  0.416667  0.250000  0.250000     12.000000
 -0.416667 -0.250000 -0.250000     12.000000
  0.250000  0.416667  0.250000     12.000000
 -0.250000 -0.416667 -0.250000     12.000000
  0.250000  0.250000  0.416667     12.000000
 -0.250000 -0.250000 -0.416667     12.000000
  0.250000  0.000000 -0.166667     12.000000
 -0.250000  0.000000  0.166667     12.000000
  0.416667  0.166667  0.166667     12.000000
 -0.416667 -0.166667 -0.166667     12.000000
  0.250000 -0.166667  0.000000     12.000000
 -0.250000  0.166667  0.000000     12.000000
  0.000000  0.166667 -0.250000     12.000000
  0.000000 -0.166667  0.250000     12.000000
  0.166667  0.000000 -0.250000     12.000000
 -0.166667  0.000000  0.250000     12.000000
 -0.166667 -0.166667 -0.416667     12.000000
  0.166667  0.166667  0.416667     12.000000
  0.166667  0.416667  0.166667     12.000000
 -0.166667 -0.416667 -0.166667     12.000000
  0.000000  0.250000 -0.166667     12.000000
  0.000000 -0.250000  0.166667     12.000000
 -0.166667  0.250000  0.000000     12.000000
  0.166667 -0.250000  0.000000     12.000000
 -0.416667  0.250000  0.250000     12.000000
  0.416667 -0.250000 -0.250000     12.000000
  0.250000 -0.416667  0.250000     12.000000
 -0.250000  0.416667 -0.250000     12.000000
  0.250000  0.250000 -0.416667     12.000000
 -0.250000 -0.250000  0.416667     12.000000
  0.250000  0.000000 -0.333333     12.000000
 -0.250000  0.000000  0.333333     12.000000
 -0.416667  0.333333  0.333333     12.000000
  0.416667 -0.333333 -0.333333     12.000000
  0.250000 -0.333333  0.000000     12.000000
 -0.250000  0.333333  0.000000     12.000000
  0.000000  0.333333 -0.250000     12.000000
  0.000000 -0.333333  0.250000     12.000000
  0.333333  0.000000 -0.250000     12.000000
 -0.333333  0.000000  0.250000     12.000000
 -0.333333 -0.333333  0.416667     12.000000
  0.333333  0.333333 -0.416667     12.000000
  0.333333 -0.416667  0.333333     12.000000
 -0.333333  0.416667 -0.333333     12.000000
  0.000000  0.250000 -0.333333     12.000000
  0.000000 -0.250000  0.333333     12.000000
 -0.333333  0.250000  0.000000     12.000000
  0.333333 -0.250000  0.000000     12.000000
 -0.250000  0.250000  0.250000     12.000000
  0.250000 -0.250000 -0.250000     12.000000
  0.250000 -0.250000  0.250000     12.000000
 -0.250000  0.250000 -0.250000     12.000000
  0.250000  0.250000 -0.250000     12.000000
 -0.250000 -0.250000  0.250000     12.000000
  0.250000  0.000000  0.500000     12.000000
 -0.250000  0.000000  0.500000     12.000000
 -0.250000  0.500000  0.500000     12.000000
  0.250000  0.500000  0.500000     12.000000
  0.250000  0.500000  0.000000     12.000000
 -0.250000  0.500000  0.000000     12.000000
  0.000000  0.500000 -0.250000     12.000000
  0.000000  0.500000  0.250000     12.000000
  0.500000  0.000000 -0.250000     12.000000
  0.500000  0.000000  0.250000     12.000000
  0.500000  0.500000  0.250000     12.000000
  0.500000  0.500000 -0.250000     12.000000
  0.500000 -0.250000  0.500000     12.000000
  0.500000  0.250000  0.500000     12.000000
  0.000000  0.250000  0.500000     12.000000
  0.000000 -0.250000  0.500000     12.000000
  0.500000  0.250000  0.000000     12.000000
  0.500000 -0.250000  0.000000     12.000000
  0.416667  0.416667  0.250000     12.000000
 -0.416667 -0.416667 -0.250000     12.000000
  0.250000  0.416667  0.416667     12.000000
 -0.250000 -0.416667 -0.416667     12.000000
  0.416667  0.250000  0.416667     12.000000
 -0.416667 -0.250000 -0.416667     12.000000
  0.416667  0.166667  0.000000     12.000000
 -0.416667 -0.166667  0.000000     12.000000
  0.416667  0.000000  0.166667     12.000000
 -0.416667  0.000000 -0.166667     12.000000
  0.250000 -0.166667 -0.166667     12.000000
 -0.250000  0.166667  0.166667     12.000000
  0.166667  0.166667 -0.250000     12.000000
 -0.166667 -0.166667  0.250000     12.000000
  0.000000 -0.166667 -0.416667     12.000000
  0.000000  0.166667  0.416667     12.000000
 -0.166667  0.000000 -0.416667     12.000000
  0.166667  0.000000  0.416667     12.000000
  0.166667  0.416667  0.000000     12.000000
 -0.166667 -0.416667  0.000000     12.000000
 -0.166667  0.250000 -0.166667     12.000000
  0.166667 -0.250000  0.166667     12.000000
  0.000000  0.416667  0.166667     12.000000
  0.000000 -0.416667 -0.166667     12.000000
 -0.416667  0.416667  0.250000     12.000000
  0.416667 -0.416667 -0.250000     12.000000
  0.250000 -0.416667  0.416667     12.000000
 -0.250000  0.416667 -0.416667     12.000000
  0.416667  0.250000 -0.416667     12.000000
 -0.416667 -0.250000  0.416667     12.000000
  0.416667  0.166667 -0.166667     12.000000
 -0.416667 -0.166667  0.166667     12.000000
 -0.416667  0.166667  0.333333     12.000000
  0.416667 -0.166667 -0.333333     12.000000
  0.250000 -0.333333 -0.166667     12.000000
 -0.250000  0.333333  0.166667     12.000000
  0.166667  0.333333 -0.250000     12.000000
 -0.166667 -0.333333  0.250000     12.000000
  0.166667 -0.166667 -0.416667     12.000000
 -0.166667  0.166667  0.416667     12.000000
 -0.333333 -0.166667  0.416667     12.000000
  0.333333  0.166667 -0.416667     12.000000
  0.333333 -0.416667  0.166667     12.000000
 -0.333333  0.416667 -0.166667     12.000000
 -0.166667  0.250000 -0.333333     12.000000
  0.166667 -0.250000  0.333333     12.000000
 -0.166667  0.416667  0.166667     12.000000
  0.166667 -0.416667 -0.166667     12.000000
 -0.250000  0.166667  0.333333     12.000000
  0.250000 -0.166667 -0.333333     12.000000
 -0.416667  0.166667 -0.166667     12.000000
  0.416667 -0.166667  0.166667     12.000000
  0.416667 -0.333333 -0.166667     12.000000
 -0.416667  0.333333  0.166667     12.000000
  0.166667  0.333333 -0.416667     12.000000
 -0.166667 -0.333333  0.416667     12.000000
 -0.333333 -0.166667  0.250000     12.000000
  0.333333  0.166667 -0.250000     12.000000
  0.166667 -0.166667  0.416667     12.000000
 -0.166667  0.166667 -0.416667     12.000000
  0.333333 -0.250000  0.166667     12.000000
 -0.333333  0.250000 -0.166667     12.000000
 -0.166667 -0.416667  0.166667     12.000000
  0.166667  0.416667 -0.166667     12.000000
 -0.166667  0.416667 -0.333333     12.000000
  0.166667 -0.416667  0.333333     12.000000
  0.416667 -0.250000 -0.416667     12.000000
 -0.416667  0.250000  0.416667     12.000000
 -0.416667  0.416667 -0.250000     12.000000
  0.416667 -0.416667  0.250000     12.000000
 -0.250000 -0.416667  0.416667     12.000000
  0.250000  0.416667 -0.416667     12.000000
 -0.250000  0.416667  0.250000     12.000000
  0.250000 -0.416667 -0.250000     12.000000
  0.250000 -0.250000  0.416667     12.000000
 -0.250000  0.250000 -0.416667     12.000000
  0.416667  0.250000 -0.250000     12.000000
 -0.416667 -0.250000  0.250000     12.000000
  0.416667  0.166667 -0.333333     12.000000
 -0.416667 -0.166667  0.333333     12.000000
 -0.250000  0.333333  0.500000     12.000000
  0.250000 -0.333333  0.500000     12.000000
  0.250000  0.500000 -0.166667     12.000000
 -0.250000  0.500000  0.166667     12.000000
  0.166667  0.500000 -0.250000     12.000000
 -0.166667  0.500000  0.250000     12.000000
  0.333333 -0.166667 -0.416667     12.000000
 -0.333333  0.166667  0.416667     12.000000
  0.500000 -0.333333  0.250000     12.000000
  0.500000  0.333333 -0.250000     12.000000
  0.500000 -0.250000  0.333333     12.000000
  0.500000  0.250000 -0.333333     12.000000
 -0.166667  0.250000  0.500000     12.000000
  0.166667 -0.250000  0.500000     12.000000
 -0.333333  0.416667  0.166667     12.000000
  0.333333 -0.416667 -0.166667     12.000000
 -0.250000  0.166667  0.500000     12.000000
  0.250000 -0.166667  0.500000     12.000000
 -0.416667  0.333333 -0.166667     12.000000
  0.416667 -0.333333  0.166667     12.000000
  0.250000  0.500000 -0.333333     12.000000
 -0.250000  0.500000  0.333333     12.000000
  0.333333  0.500000 -0.250000     12.000000
 -0.333333  0.500000  0.250000     12.000000
  0.500000 -0.166667  0.250000     12.000000
  0.500000  0.166667 -0.250000     12.000000
  0.166667 -0.333333  0.416667     12.000000
 -0.166667  0.333333 -0.416667     12.000000
  0.500000 -0.250000  0.166667     12.000000
  0.500000  0.250000 -0.166667     12.000000
 -0.166667 -0.416667  0.333333     12.000000
  0.166667  0.416667 -0.333333     12.000000
 -0.333333  0.250000  0.500000     12.000000
  0.333333 -0.250000  0.500000     12.000000
  0.250000 -0.250000 -0.416667     12.000000
 -0.250000  0.250000  0.416667     12.000000
 -0.416667  0.250000 -0.250000     12.000000
  0.416667 -0.250000  0.250000     12.000000
 -0.250000 -0.416667  0.250000     12.000000
  0.250000  0.416667 -0.250000     12.000000
 -0.416667 -0.416667  0.250000     12.000000
  0.416667  0.416667 -0.250000     12.000000
  0.250000 -0.416667 -0.416667     12.000000
 -0.250000  0.416667  0.416667     12.000000
 -0.416667  0.250000 -0.416667     12.000000
  0.416667 -0.250000  0.416667     12.000000
 -0.416667  0.333333  0.000000     12.000000
  0.416667 -0.333333  0.000000     12.000000
 -0.416667  0.000000  0.333333     12.000000
  0.416667  0.000000 -0.333333     12.000000
  0.250000 -0.333333 -0.333333     12.000000
 -0.250000  0.333333  0.333333     12.000000
  0.333333  0.333333 -0.250000     12.000000
 -0.333333 -0.333333  0.250000     12.000000
  0.000000 -0.333333  0.416667     12.000000
  0.000000  0.333333 -0.416667     12.000000
 -0.333333  0.000000  0.416667     12.000000
  0.333333  0.000000 -0.416667     12.000000
  0.333333 -0.416667  0.000000     12.000000
 -0.333333  0.416667  0.000000     12.000000
 -0.333333  0.250000 -0.333333     12.000000
  0.333333 -0.250000  0.333333     12.000000
  0.000000 -0.416667  0.333333     12.000000
  0.000000  0.416667 -0.333333     12.000000
  0.416667  0.416667  0.416667     12.000000
 -0.416667 -0.416667 -0.416667     12.000000
  0.416667  0.000000  0.000000     12.000000
 -0.416667  0.000000  0.000000     12.000000
  0.000000  0.000000 -0.416667     12.000000
  0.000000  0.000000  0.416667     12.000000
  0.000000  0.416667  0.000000     12.000000
  0.000000 -0.416667  0.000000     12.000000
 -0.416667  0.416667  0.416667     12.000000
  0.416667 -0.416667 -0.416667     12.000000
  0.416667 -0.416667  0.416667     12.000000
 -0.416667  0.416667 -0.416667     12.000000
  0.416667  0.416667 -0.416667     12.000000
 -0.416667 -0.416667  0.416667     12.000000
  0.416667  0.000000 -0.166667     12.000000
 -0.416667  0.000000  0.166667     12.000000
 -0.416667  0.166667  0.166667     12.000000
  0.416667 -0.166667 -0.166667     12.000000
  0.416667 -0.166667  0.000000     12.000000
 -0.416667  0.166667  0.000000     12.000000
  0.000000  0.166667 -0.416667     12.000000
  0.000000 -0.166667  0.416667     12.000000
  0.166667  0.000000 -0.416667     12.000000
 -0.166667  0.000000  0.416667     12.000000
 -0.166667 -0.166667  0.416667     12.000000
  0.166667  0.166667 -0.416667     12.000000
  0.166667 -0.416667  0.166667     12.000000
 -0.166667  0.416667 -0.166667     12.000000
  0.000000  0.416667 -0.166667     12.000000
  0.000000 -0.416667  0.166667     12.000000
 -0.166667  0.416667  0.000000     12.000000
  0.166667 -0.416667  0.000000     12.000000
 
 Following cartesian coordinates:
            Coordinates               Weight
 -0.015240  0.015240  0.015240     12.000000
  0.015240 -0.015240 -0.015240     12.000000
 -0.015240 -0.015240  0.015240     12.000000
  0.015240  0.015240 -0.015240     12.000000
  0.015240 -0.015240  0.015240     12.000000
 -0.015240  0.015240 -0.015240     12.000000
  0.015240  0.015240  0.015240     12.000000
 -0.015240 -0.015240 -0.015240     12.000000
 -0.045721 -0.015240  0.045721     12.000000
  0.045721  0.015240 -0.045721     12.000000
  0.015240  0.045721  0.045721     12.000000
 -0.015240 -0.045721 -0.045721     12.000000
 -0.045721  0.045721 -0.015240     12.000000
  0.045721 -0.045721  0.015240     12.000000
  0.015240 -0.045721  0.045721     12.000000
 -0.015240  0.045721 -0.045721     12.000000
 -0.045721  0.015240  0.045721     12.000000
  0.045721 -0.015240 -0.045721     12.000000
 -0.045721 -0.045721 -0.015240     12.000000
  0.045721  0.045721  0.015240     12.000000
  0.045721  0.015240  0.045721     12.000000
 -0.045721 -0.015240 -0.045721     12.000000
 -0.015240 -0.045721  0.045721     12.000000
  0.015240  0.045721 -0.045721     12.000000
  0.045721 -0.045721 -0.015240     12.000000
 -0.045721  0.045721  0.015240     12.000000
 -0.015240  0.045721  0.045721     12.000000
  0.015240 -0.045721 -0.045721     12.000000
  0.045721 -0.015240  0.045721     12.000000
 -0.045721  0.015240 -0.045721     12.000000
  0.045721  0.045721 -0.015240     12.000000
 -0.045721 -0.045721  0.015240     12.000000
 -0.076201 -0.045721  0.076201     12.000000
  0.076201  0.045721 -0.076201     12.000000
  0.045721  0.076201  0.076201     12.000000
 -0.045721 -0.076201 -0.076201     12.000000
 -0.076201  0.076201 -0.045721     12.000000
  0.076201 -0.076201  0.045721     12.000000
  0.045721 -0.076201  0.076201     12.000000
 -0.045721  0.076201 -0.076201     12.000000
 -0.076201  0.045721  0.076201     12.000000
  0.076201 -0.045721 -0.076201     12.000000
 -0.076201 -0.076201 -0.045721     12.000000
  0.076201  0.076201  0.045721     12.000000
  0.076201  0.045721  0.076201     12.000000
 -0.076201 -0.045721 -0.076201     12.000000
 -0.045721 -0.076201  0.076201     12.000000
  0.045721  0.076201 -0.076201     12.000000
  0.076201 -0.076201 -0.045721     12.000000
 -0.076201  0.076201  0.045721     12.000000
 -0.045721  0.076201  0.076201     12.000000
  0.045721 -0.076201 -0.076201     12.000000
  0.076201 -0.045721  0.076201     12.000000
 -0.076201  0.045721 -0.076201     12.000000
  0.076201  0.076201 -0.045721     12.000000
 -0.076201 -0.076201  0.045721     12.000000
  0.076201  0.106681 -0.076201     12.000000
 -0.076201 -0.106681  0.076201     12.000000
 -0.106681 -0.076201 -0.076201     12.000000
  0.106681  0.076201  0.076201     12.000000
  0.076201 -0.076201  0.106681     12.000000
 -0.076201  0.076201 -0.106681     12.000000
 -0.106681  0.076201 -0.076201     12.000000
 -0.076201  0.106681 -0.106681     12.000000
  0.076201  0.259083 -0.076201     12.000000
 -0.076201  0.106681  0.076201     12.000000
  0.076201  0.076201  0.106681     12.000000
  0.106681  0.106681  0.076201     12.000000
  0.106681  0.076201  0.106681     12.000000
  0.076201  0.106681  0.076201     12.000000
 -0.076201 -0.106681  0.106681     12.000000
 -0.106681 -0.076201  0.076201     12.000000
 -0.076201  0.076201  0.106681     12.000000
  0.076201 -0.076201  0.259083     12.000000
 -0.259083 -0.076201 -0.076201     12.000000
 -0.106681  0.076201  0.076201     12.000000
 -0.076201  0.106681 -0.076201     12.000000
 -0.106681  0.076201 -0.106681     12.000000
 -0.076201 -0.076201  0.106681     12.000000
 -0.106681 -0.106681  0.076201     12.000000
  0.045721  0.076201 -0.045721     12.000000
 -0.045721 -0.076201  0.045721     12.000000
 -0.076201 -0.045721 -0.045721     12.000000
  0.076201  0.045721  0.045721     12.000000
  0.045721 -0.045721  0.076201     12.000000
 -0.045721  0.045721 -0.076201     12.000000
 -0.076201  0.045721 -0.045721     12.000000
  0.076201 -0.045721  0.045721     12.000000
  0.045721 -0.076201 -0.045721     12.000000
 -0.045721  0.076201  0.045721     12.000000
  0.045721  0.045721  0.076201     12.000000
 -0.045721 -0.045721 -0.076201     12.000000
 -0.045721 -0.076201 -0.045721     12.000000
  0.045721  0.076201  0.045721     12.000000
  0.076201  0.045721 -0.045721     12.000000
 -0.076201 -0.045721  0.045721     12.000000
 -0.045721  0.045721  0.076201     12.000000
  0.045721 -0.045721 -0.076201     12.000000
  0.076201 -0.045721 -0.045721     12.000000
 -0.076201  0.045721  0.045721     12.000000
 -0.045721  0.076201 -0.045721     12.000000
  0.045721 -0.076201  0.045721     12.000000
 -0.045721 -0.045721  0.076201     12.000000
  0.045721  0.045721 -0.076201     12.000000
  0.015240  0.045721 -0.015240     12.000000
 -0.015240 -0.045721  0.015240     12.000000
 -0.045721 -0.015240 -0.015240     12.000000
  0.045721  0.015240  0.015240     12.000000
  0.015240 -0.015240  0.045721     12.000000
 -0.015240  0.015240 -0.045721     12.000000
 -0.045721  0.015240 -0.015240     12.000000
  0.045721 -0.015240  0.015240     12.000000
  0.015240 -0.045721 -0.015240     12.000000
 -0.015240  0.045721  0.015240     12.000000
  0.015240  0.015240  0.045721     12.000000
 -0.015240 -0.015240 -0.045721     12.000000
 -0.015240 -0.045721 -0.015240     12.000000
  0.015240  0.045721  0.015240     12.000000
  0.045721  0.015240 -0.015240     12.000000
 -0.045721 -0.015240  0.015240     12.000000
 -0.015240  0.015240  0.045721     12.000000
  0.015240 -0.015240 -0.045721     12.000000
  0.045721 -0.015240 -0.015240     12.000000
 -0.045721  0.015240  0.015240     12.000000
 -0.015240  0.045721 -0.015240     12.000000
  0.015240 -0.045721  0.015240     12.000000
 -0.015240 -0.015240  0.045721     12.000000
  0.015240  0.015240 -0.045721     12.000000
 -0.015240  0.015240  0.076201     12.000000
  0.015240 -0.015240 -0.076201     12.000000
 -0.015240  0.076201  0.015240     12.000000
  0.015240 -0.076201 -0.015240     12.000000
 -0.076201  0.015240  0.015240     12.000000
  0.076201 -0.015240 -0.015240     12.000000
 -0.015240 -0.015240  0.076201     12.000000
  0.015240  0.015240 -0.076201     12.000000
 -0.076201 -0.015240  0.015240     12.000000
  0.076201  0.015240 -0.015240     12.000000
 -0.015240 -0.076201  0.015240     12.000000
  0.015240  0.076201 -0.015240     12.000000
  0.015240 -0.015240  0.076201     12.000000
 -0.015240  0.015240 -0.076201     12.000000
  0.015240 -0.076201  0.015240     12.000000
 -0.015240  0.076201 -0.015240     12.000000
  0.076201 -0.015240  0.015240     12.000000
 -0.076201  0.015240 -0.015240     12.000000
  0.015240  0.015240  0.076201     12.000000
 -0.015240 -0.015240 -0.076201     12.000000
  0.076201  0.015240  0.015240     12.000000
 -0.076201 -0.015240 -0.015240     12.000000
  0.015240  0.076201  0.015240     12.000000
 -0.015240 -0.076201 -0.015240     12.000000
 -0.045721 -0.015240  0.106681     12.000000
  0.045721  0.015240 -0.106681     12.000000
  0.015240  0.106681  0.045721     12.000000
 -0.015240 -0.106681 -0.045721     12.000000
 -0.106681  0.045721 -0.015240     12.000000
  0.106681 -0.045721  0.015240     12.000000
  0.015240 -0.045721  0.106681     12.000000
 -0.015240  0.045721 -0.106681     12.000000
 -0.106681  0.015240  0.045721     12.000000
  0.106681 -0.015240 -0.045721     12.000000
 -0.045721 -0.106681 -0.015240     12.000000
  0.045721  0.106681  0.015240     12.000000
  0.045721  0.015240  0.106681     12.000000
 -0.045721 -0.015240 -0.106681     12.000000
 -0.015240 -0.106681  0.045721     12.000000
  0.015240  0.106681 -0.045721     12.000000
  0.106681 -0.045721 -0.015240     12.000000
 -0.106681  0.045721  0.015240     12.000000
 -0.015240  0.045721  0.106681     12.000000
  0.015240 -0.045721 -0.106681     12.000000
  0.106681 -0.015240  0.045721     12.000000
 -0.106681  0.015240 -0.045721     12.000000
  0.045721  0.106681 -0.015240     12.000000
 -0.045721 -0.106681  0.015240     12.000000
 -0.015240  0.106681 -0.045721     12.000000
  0.015240 -0.106681  0.045721     12.000000
  0.106681  0.045721  0.015240     12.000000
 -0.106681 -0.045721 -0.015240     12.000000
  0.045721 -0.015240 -0.106681     12.000000
 -0.045721  0.015240  0.106681     12.000000
 -0.045721  0.106681  0.015240     12.000000
  0.045721 -0.106681 -0.015240     12.000000
  0.015240  0.045721 -0.106681     12.000000
 -0.015240 -0.045721  0.106681     12.000000
 -0.106681 -0.015240 -0.045721     12.000000
  0.106681  0.015240  0.045721     12.000000
 -0.106681 -0.045721  0.015240     12.000000
  0.106681  0.045721 -0.015240     12.000000
 -0.045721  0.015240 -0.106681     12.000000
  0.045721 -0.015240  0.106681     12.000000
  0.015240 -0.106681 -0.045721     12.000000
 -0.015240  0.106681  0.045721     12.000000
  0.106681  0.015240 -0.045721     12.000000
 -0.106681 -0.015240  0.045721     12.000000
 -0.015240 -0.045721 -0.106681     12.000000
  0.015240  0.045721  0.106681     12.000000
  0.045721 -0.106681  0.015240     12.000000
 -0.045721  0.106681 -0.015240     12.000000
  0.106681  0.137162 -0.045721     12.000000
 -0.106681 -0.137162  0.045721     12.000000
 -0.137162 -0.045721 -0.106681     12.000000
  0.137162  0.045721  0.106681     12.000000
  0.045721 -0.106681  0.137162     12.000000
 -0.045721  0.106681 -0.137162     12.000000
  0.045721 -0.076201  0.137162     12.000000
 -0.045721  0.076201 -0.137162     12.000000
  0.045721  0.228603 -0.106681     12.000000
 -0.228603 -0.045721 -0.076201     12.000000
  0.106681  0.045721  0.137162     12.000000
  0.076201  0.137162  0.045721     12.000000
  0.076201  0.045721  0.137162     12.000000
  0.106681  0.137162  0.045721     12.000000
 -0.045721 -0.137162  0.076201     12.000000
  0.045721  0.137162 -0.076201     12.000000
 -0.228603 -0.076201 -0.045721     12.000000
  0.045721 -0.106681  0.228603     12.000000
 -0.228603 -0.106681 -0.045721     12.000000
  0.045721 -0.076201  0.228603     12.000000
 -0.045721  0.137162 -0.106681     12.000000
 -0.137162  0.045721 -0.076201     12.000000
  0.076201  0.137162 -0.045721     12.000000
 -0.076201 -0.137162  0.045721     12.000000
 -0.045721  0.137162 -0.076201     12.000000
 -0.137162  0.045721 -0.106681     12.000000
  0.137162  0.076201  0.045721     12.000000
 -0.137162 -0.076201 -0.045721     12.000000
  0.076201 -0.045721  0.228603     12.000000
  0.106681  0.228603 -0.045721     12.000000
  0.106681 -0.045721  0.228603     12.000000
  0.076201  0.228603 -0.045721     12.000000
 -0.137162 -0.106681  0.045721     12.000000
 -0.045721 -0.076201  0.137162     12.000000
 -0.137162 -0.045721 -0.076201     12.000000
  0.137162  0.045721  0.076201     12.000000
 -0.137162 -0.076201  0.045721     12.000000
 -0.045721 -0.106681  0.137162     12.000000
 -0.076201  0.045721 -0.137162     12.000000
  0.076201 -0.045721  0.137162     12.000000
  0.045721  0.228603 -0.076201     12.000000
 -0.228603 -0.045721 -0.106681     12.000000
 -0.045721 -0.137162  0.106681     12.000000
  0.045721  0.137162 -0.106681     12.000000
  0.137162  0.106681  0.045721     12.000000
 -0.137162 -0.106681 -0.045721     12.000000
 -0.106681  0.045721 -0.137162     12.000000
  0.106681 -0.045721  0.137162     12.000000
  0.076201  0.106681 -0.015240     12.000000
 -0.076201 -0.106681  0.015240     12.000000
 -0.106681 -0.015240 -0.076201     12.000000
  0.106681  0.015240  0.076201     12.000000
  0.015240 -0.076201  0.106681     12.000000
 -0.015240  0.076201 -0.106681     12.000000
 -0.106681  0.076201 -0.015240     12.000000
 -0.076201  0.106681 -0.167642     12.000000
  0.198122  0.076201  0.106681     12.000000
 -0.015240  0.106681  0.076201     12.000000
  0.076201  0.015240  0.106681     12.000000
 -0.076201 -0.015240 -0.106681     12.000000
 -0.076201 -0.106681 -0.015240     12.000000
  0.076201  0.106681  0.015240     12.000000
 -0.076201 -0.167642  0.106681     12.000000
 -0.106681 -0.015240  0.076201     12.000000
 -0.015240  0.076201  0.106681     12.000000
  0.198122  0.106681  0.076201     12.000000
 -0.076201  0.106681 -0.198122     12.000000
 -0.106681  0.076201  0.015240     12.000000
 -0.015240  0.106681 -0.076201     12.000000
  0.015240 -0.106681  0.076201     12.000000
 -0.076201 -0.015240  0.106681     12.000000
 -0.106681 -0.167642  0.076201     12.000000
  0.106681 -0.015240  0.076201     12.000000
 -0.106681  0.015240 -0.076201     12.000000
  0.167642  0.106681  0.076201     12.000000
  0.015240  0.076201  0.106681     12.000000
 -0.076201  0.106681  0.015240     12.000000
 -0.106681  0.076201 -0.198122     12.000000
 -0.106681 -0.198122  0.076201     12.000000
 -0.076201  0.015240  0.106681     12.000000
 -0.106681 -0.076201  0.015240     12.000000
  0.106681  0.076201 -0.015240     12.000000
  0.015240  0.106681  0.076201     12.000000
  0.167642  0.076201  0.106681     12.000000
  0.015240  0.076201 -0.106681     12.000000
 -0.015240 -0.076201  0.106681     12.000000
 -0.106681  0.076201 -0.167642     12.000000
 -0.076201  0.106681 -0.015240     12.000000
 -0.106681  0.015240  0.076201     12.000000
 -0.076201 -0.198122  0.106681     12.000000
 -0.015240 -0.106681  0.076201     12.000000
  0.015240  0.106681 -0.076201     12.000000
  0.106681  0.076201  0.015240     12.000000
 -0.106681 -0.076201 -0.015240     12.000000
 -0.076201  0.015240 -0.106681     12.000000
  0.076201 -0.015240  0.106681     12.000000
  0.045721  0.076201  0.015240     12.000000
 -0.045721 -0.076201 -0.015240     12.000000
 -0.076201  0.015240 -0.045721     12.000000
  0.076201 -0.015240  0.045721     12.000000
 -0.015240 -0.045721  0.076201     12.000000
  0.015240  0.045721 -0.076201     12.000000
 -0.076201  0.045721  0.015240     12.000000
  0.076201 -0.045721 -0.015240     12.000000
 -0.015240 -0.076201 -0.045721     12.000000
  0.015240  0.076201  0.045721     12.000000
  0.045721 -0.015240  0.076201     12.000000
 -0.045721  0.015240 -0.076201     12.000000
 -0.045721 -0.076201  0.015240     12.000000
  0.045721  0.076201 -0.015240     12.000000
  0.076201 -0.015240 -0.045721     12.000000
 -0.076201  0.015240  0.045721     12.000000
  0.015240  0.045721  0.076201     12.000000
 -0.015240 -0.045721 -0.076201     12.000000
  0.076201 -0.045721  0.015240     12.000000
 -0.076201  0.045721 -0.015240     12.000000
  0.015240  0.076201 -0.045721     12.000000
 -0.015240 -0.076201  0.045721     12.000000
 -0.045721  0.015240  0.076201     12.000000
  0.045721 -0.015240 -0.076201     12.000000
  0.076201  0.015240  0.045721     12.000000
 -0.076201 -0.015240 -0.045721     12.000000
  0.015240 -0.045721 -0.076201     12.000000
 -0.015240  0.045721  0.076201     12.000000
 -0.045721  0.076201 -0.015240     12.000000
  0.045721 -0.076201  0.015240     12.000000
  0.045721  0.015240 -0.076201     12.000000
 -0.045721 -0.015240  0.076201     12.000000
 -0.076201 -0.045721 -0.015240     12.000000
  0.076201  0.045721  0.015240     12.000000
 -0.015240  0.076201  0.045721     12.000000
  0.015240 -0.076201 -0.045721     12.000000
 -0.015240  0.045721 -0.076201     12.000000
  0.015240 -0.045721  0.076201     12.000000
  0.045721 -0.076201 -0.015240     12.000000
 -0.045721  0.076201  0.015240     12.000000
 -0.076201 -0.015240  0.045721     12.000000
  0.076201  0.015240 -0.045721     12.000000
  0.015240 -0.076201  0.045721     12.000000
 -0.015240  0.076201 -0.045721     12.000000
  0.076201  0.045721 -0.015240     12.000000
 -0.076201 -0.045721  0.015240     12.000000
 -0.045721 -0.015240 -0.076201     12.000000
  0.045721  0.015240  0.076201     12.000000
 -0.015240  0.015240  0.137162     12.000000
  0.015240 -0.015240 -0.137162     12.000000
 -0.015240  0.137162  0.015240     12.000000
  0.015240 -0.137162 -0.015240     12.000000
 -0.137162  0.015240  0.015240     12.000000
  0.137162 -0.015240 -0.015240     12.000000
 -0.015240 -0.015240  0.137162     12.000000
  0.015240  0.015240 -0.137162     12.000000
 -0.137162 -0.015240  0.015240     12.000000
  0.137162  0.015240 -0.015240     12.000000
 -0.015240 -0.137162  0.015240     12.000000
  0.015240  0.137162 -0.015240     12.000000
  0.015240 -0.015240  0.137162     12.000000
 -0.015240  0.015240 -0.137162     12.000000
  0.015240 -0.137162  0.015240     12.000000
 -0.015240  0.137162 -0.015240     12.000000
  0.137162 -0.015240  0.015240     12.000000
 -0.137162  0.015240 -0.015240     12.000000
  0.015240  0.015240  0.137162     12.000000
 -0.015240 -0.015240 -0.137162     12.000000
  0.137162  0.015240  0.015240     12.000000
 -0.137162 -0.015240 -0.015240     12.000000
  0.015240  0.137162  0.015240     12.000000
 -0.015240 -0.137162 -0.015240     12.000000
  0.137162  0.167642 -0.015240     12.000000
 -0.137162 -0.167642  0.015240     12.000000
 -0.167642 -0.015240 -0.137162     12.000000
  0.167642  0.015240  0.137162     12.000000
  0.015240 -0.137162  0.167642     12.000000
 -0.015240  0.137162 -0.167642     12.000000
  0.015240 -0.045721  0.167642     12.000000
 -0.015240  0.045721 -0.167642     12.000000
  0.015240  0.198122 -0.137162     12.000000
 -0.198122 -0.015240 -0.045721     12.000000
  0.137162  0.015240  0.167642     12.000000
  0.045721  0.167642  0.015240     12.000000
  0.045721  0.015240  0.167642     12.000000
  0.137162  0.167642  0.015240     12.000000
 -0.015240 -0.167642  0.045721     12.000000
  0.015240  0.167642 -0.045721     12.000000
 -0.198122 -0.045721 -0.015240     12.000000
  0.015240 -0.137162  0.198122     12.000000
 -0.198122 -0.137162 -0.015240     12.000000
  0.015240 -0.045721  0.198122     12.000000
 -0.015240  0.167642 -0.137162     12.000000
 -0.167642  0.015240 -0.045721     12.000000
  0.045721  0.167642 -0.015240     12.000000
 -0.045721 -0.167642  0.015240     12.000000
 -0.015240  0.167642 -0.045721     12.000000
 -0.167642  0.015240 -0.137162     12.000000
  0.167642  0.045721  0.015240     12.000000
 -0.167642 -0.045721 -0.015240     12.000000
  0.045721 -0.015240  0.198122     12.000000
  0.137162  0.198122 -0.015240     12.000000
  0.137162 -0.015240  0.198122     12.000000
  0.045721  0.198122 -0.015240     12.000000
 -0.167642 -0.137162  0.015240     12.000000
 -0.015240 -0.045721  0.167642     12.000000
 -0.167642 -0.015240 -0.045721     12.000000
  0.167642  0.015240  0.045721     12.000000
 -0.167642 -0.045721  0.015240     12.000000
 -0.015240 -0.137162  0.167642     12.000000
 -0.045721  0.015240 -0.167642     12.000000
  0.045721 -0.015240  0.167642     12.000000
  0.015240  0.198122 -0.045721     12.000000
 -0.198122 -0.015240 -0.137162     12.000000
 -0.015240 -0.167642  0.137162     12.000000
  0.015240  0.167642 -0.137162     12.000000
  0.167642  0.137162  0.015240     12.000000
 -0.167642 -0.137162 -0.015240     12.000000
 -0.137162  0.015240 -0.167642     12.000000
  0.137162 -0.015240  0.167642     12.000000
  0.106681  0.137162  0.015240     12.000000
 -0.106681 -0.137162 -0.015240     12.000000
 -0.137162  0.015240 -0.106681     12.000000
  0.137162 -0.015240  0.106681     12.000000
 -0.015240 -0.106681  0.137162     12.000000
  0.015240  0.106681 -0.137162     12.000000
  0.045721 -0.076201  0.198122     12.000000
 -0.045721  0.076201 -0.198122     12.000000
  0.167642  0.045721  0.076201     12.000000
 -0.167642 -0.045721 -0.076201     12.000000
  0.106681 -0.015240  0.137162     12.000000
 -0.106681  0.015240 -0.137162     12.000000
 -0.106681 -0.137162  0.015240     12.000000
  0.106681  0.137162 -0.015240     12.000000
 -0.045721 -0.198122  0.076201     12.000000
  0.045721  0.198122 -0.076201     12.000000
 -0.167642 -0.076201 -0.045721     12.000000
  0.167642  0.076201  0.045721     12.000000
 -0.045721  0.076201 -0.167642     12.000000
  0.045721 -0.076201  0.167642     12.000000
  0.015240  0.137162 -0.106681     12.000000
 -0.015240 -0.137162  0.106681     12.000000
  0.076201  0.198122 -0.045721     12.000000
 -0.076201 -0.198122  0.045721     12.000000
  0.137162  0.015240  0.106681     12.000000
 -0.137162 -0.015240 -0.106681     12.000000
  0.198122  0.076201  0.045721     12.000000
 -0.198122 -0.076201 -0.045721     12.000000
  0.076201 -0.045721  0.167642     12.000000
 -0.076201  0.045721 -0.167642     12.000000
 -0.076201 -0.167642  0.045721     12.000000
  0.076201  0.167642 -0.045721     12.000000
 -0.137162 -0.106681 -0.015240     12.000000
  0.137162  0.106681  0.015240     12.000000
 -0.198122 -0.045721 -0.076201     12.000000
  0.198122  0.045721  0.076201     12.000000
 -0.015240  0.106681 -0.137162     12.000000
  0.015240 -0.106681  0.137162     12.000000
 -0.076201  0.045721 -0.198122     12.000000
  0.076201 -0.045721  0.198122     12.000000
  0.045721  0.167642 -0.076201     12.000000
 -0.045721 -0.167642  0.076201     12.000000
  0.015240 -0.137162  0.106681     12.000000
 -0.015240  0.137162 -0.106681     12.000000
  0.137162  0.106681 -0.015240     12.000000
 -0.137162 -0.106681  0.015240     12.000000
 -0.106681 -0.015240 -0.137162     12.000000
  0.106681  0.015240  0.137162     12.000000
  0.076201  0.106681  0.045721     12.000000
 -0.076201 -0.106681 -0.045721     12.000000
 -0.106681  0.045721 -0.076201     12.000000
  0.106681 -0.045721  0.076201     12.000000
 -0.045721 -0.076201  0.106681     12.000000
  0.045721  0.076201 -0.106681     12.000000
 -0.106681  0.076201  0.045721     12.000000
 -0.076201  0.106681 -0.228603     12.000000
  0.137162  0.076201  0.106681     12.000000
  0.045721  0.106681  0.076201     12.000000
  0.076201 -0.045721  0.106681     12.000000
 -0.076201  0.045721 -0.106681     12.000000
 -0.076201 -0.106681  0.045721     12.000000
  0.076201  0.106681 -0.045721     12.000000
 -0.076201 -0.228603  0.106681     12.000000
 -0.106681  0.045721  0.076201     12.000000
  0.045721  0.076201  0.106681     12.000000
  0.137162  0.106681  0.076201     12.000000
 -0.076201  0.106681 -0.137162     12.000000
 -0.106681  0.076201 -0.045721     12.000000
  0.045721  0.106681 -0.076201     12.000000
 -0.045721 -0.106681  0.076201     12.000000
 -0.076201  0.045721  0.106681     12.000000
 -0.106681 -0.228603  0.076201     12.000000
  0.106681  0.045721  0.076201     12.000000
 -0.106681 -0.045721 -0.076201     12.000000
  0.228603  0.106681  0.076201     12.000000
 -0.045721  0.076201  0.106681     12.000000
 -0.076201  0.106681 -0.045721     12.000000
 -0.106681  0.076201 -0.137162     12.000000
 -0.106681 -0.137162  0.076201     12.000000
 -0.076201 -0.045721  0.106681     12.000000
 -0.106681 -0.076201 -0.045721     12.000000
  0.106681  0.076201  0.045721     12.000000
 -0.045721  0.106681  0.076201     12.000000
  0.228603  0.076201  0.106681     12.000000
 -0.045721  0.076201 -0.106681     12.000000
  0.045721 -0.076201  0.106681     12.000000
 -0.106681  0.076201 -0.228603     12.000000
 -0.076201  0.106681  0.045721     12.000000
 -0.106681 -0.045721  0.076201     12.000000
 -0.076201 -0.137162  0.106681     12.000000
  0.045721 -0.106681  0.076201     12.000000
 -0.045721  0.106681 -0.076201     12.000000
  0.106681  0.076201 -0.045721     12.000000
 -0.106681 -0.076201  0.045721     12.000000
 -0.076201 -0.045721 -0.106681     12.000000
  0.076201  0.045721  0.106681     12.000000
 -0.015240  0.015240 -0.167642     12.000000
  0.015240 -0.015240  0.167642     12.000000
 -0.015240 -0.167642  0.015240     12.000000
  0.015240  0.167642 -0.015240     12.000000
  0.167642  0.015240  0.015240     12.000000
 -0.167642 -0.015240 -0.015240     12.000000
  0.167642  0.167642  0.015240     12.000000
  0.015240  0.015240  0.167642     12.000000
 -0.015240  0.167642 -0.167642     12.000000
 -0.167642  0.015240 -0.015240     12.000000
 -0.015240  0.167642  0.015240     12.000000
  0.015240  0.198122 -0.015240     12.000000
  0.015240 -0.015240  0.198122     12.000000
 -0.015240  0.015240  0.167642     12.000000
  0.015240  0.167642  0.015240     12.000000
  0.167642  0.015240  0.167642     12.000000
 -0.167642 -0.015240  0.015240     12.000000
 -0.015240 -0.167642  0.167642     12.000000
 -0.167642 -0.167642  0.015240     12.000000
 -0.015240 -0.015240  0.167642     12.000000
 -0.167642  0.015240  0.015240     12.000000
 -0.198122 -0.015240 -0.015240     12.000000
 -0.167642  0.015240 -0.167642     12.000000
 -0.015240  0.167642 -0.015240     12.000000
 -0.045721 -0.015240 -0.137162     12.000000
  0.045721  0.015240  0.137162     12.000000
  0.015240 -0.137162  0.045721     12.000000
 -0.015240  0.137162 -0.045721     12.000000
  0.137162  0.045721 -0.015240     12.000000
 -0.137162 -0.045721  0.015240     12.000000
  0.198122  0.137162  0.045721     12.000000
 -0.015240  0.045721  0.137162     12.000000
  0.137162  0.015240  0.045721     12.000000
 -0.137162 -0.015240 -0.045721     12.000000
 -0.045721  0.137162 -0.015240     12.000000
 -0.137162  0.045721 -0.167642     12.000000
 -0.137162 -0.167642  0.045721     12.000000
 -0.045721 -0.015240  0.137162     12.000000
 -0.015240  0.137162  0.045721     12.000000
  0.198122  0.045721  0.137162     12.000000
 -0.137162 -0.045721 -0.015240     12.000000
  0.137162  0.045721  0.015240     12.000000
 -0.015240  0.045721 -0.137162     12.000000
  0.015240 -0.045721  0.137162     12.000000
 -0.137162 -0.015240  0.045721     12.000000
 -0.045721 -0.167642  0.137162     12.000000
 -0.137162  0.045721 -0.198122     12.000000
 -0.045721  0.137162  0.015240     12.000000
  0.167642  0.045721  0.137162     12.000000
  0.015240  0.137162  0.045721     12.000000
 -0.137162  0.045721  0.015240     12.000000
 -0.045721  0.137162 -0.198122     12.000000
  0.045721 -0.015240  0.137162     12.000000
 -0.045721  0.015240 -0.137162     12.000000
 -0.045721 -0.137162  0.015240     12.000000
  0.045721  0.137162 -0.015240     12.000000
  0.015240  0.045721  0.137162     12.000000
  0.167642  0.137162  0.045721     12.000000
 -0.045721 -0.198122  0.137162     12.000000
 -0.137162  0.015240  0.045721     12.000000
 -0.045721  0.137162 -0.167642     12.000000
 -0.137162  0.045721 -0.015240     12.000000
 -0.045721  0.015240  0.137162     12.000000
 -0.137162 -0.198122  0.045721     12.000000
  0.015240  0.137162 -0.045721     12.000000
 -0.015240 -0.137162  0.045721     12.000000
 -0.137162  0.015240 -0.045721     12.000000
  0.137162 -0.015240  0.045721     12.000000
 -0.015240 -0.045721  0.137162     12.000000
  0.015240  0.045721 -0.137162     12.000000
  0.045721  0.137162  0.015240     12.000000
 -0.045721 -0.137162 -0.015240     12.000000
 -0.015240  0.015240 -0.106681     12.000000
  0.015240 -0.015240  0.106681     12.000000
 -0.015240 -0.106681  0.015240     12.000000
  0.015240  0.106681 -0.015240     12.000000
  0.106681  0.015240  0.015240     12.000000
 -0.106681 -0.015240 -0.015240     12.000000
 -0.015240 -0.015240 -0.106681     12.000000
  0.015240  0.015240  0.106681     12.000000
  0.106681 -0.015240  0.015240     12.000000
 -0.106681  0.015240 -0.015240     12.000000
 -0.015240  0.106681  0.015240     12.000000
  0.015240 -0.106681 -0.015240     12.000000
  0.015240 -0.015240 -0.106681     12.000000
 -0.015240  0.015240  0.106681     12.000000
  0.015240  0.106681  0.015240     12.000000
 -0.015240 -0.106681 -0.015240     12.000000
 -0.106681 -0.015240  0.015240     12.000000
  0.106681  0.015240 -0.015240     12.000000
  0.015240  0.015240 -0.106681     12.000000
 -0.015240 -0.015240  0.106681     12.000000
 -0.106681  0.015240  0.015240     12.000000
  0.106681 -0.015240 -0.015240     12.000000
  0.015240 -0.106681  0.015240     12.000000
 -0.015240  0.106681 -0.015240     12.000000
 -0.045721  0.045721  0.045721     12.000000
  0.045721 -0.045721 -0.045721     12.000000
 -0.045721 -0.045721  0.045721     12.000000
  0.045721  0.045721 -0.045721     12.000000
  0.045721 -0.045721  0.045721     12.000000
 -0.045721  0.045721 -0.045721     12.000000
  0.045721  0.045721  0.045721     12.000000
 -0.045721 -0.045721 -0.045721     12.000000
 -0.076201  0.015240  0.076201     12.000000
  0.076201 -0.015240 -0.076201     12.000000
 -0.015240  0.076201  0.076201     12.000000
  0.015240 -0.076201 -0.076201     12.000000
 -0.076201  0.076201  0.015240     12.000000
  0.076201 -0.076201 -0.015240     12.000000
 -0.015240 -0.076201  0.076201     12.000000
  0.015240  0.076201 -0.076201     12.000000
 -0.076201 -0.015240  0.076201     12.000000
  0.076201  0.015240 -0.076201     12.000000
 -0.076201 -0.076201  0.015240     12.000000
  0.076201  0.076201 -0.015240     12.000000
  0.076201 -0.015240  0.076201     12.000000
 -0.076201  0.015240 -0.076201     12.000000
  0.015240 -0.076201  0.076201     12.000000
 -0.015240  0.076201 -0.076201     12.000000
  0.076201 -0.076201  0.015240     12.000000
 -0.076201  0.076201 -0.015240     12.000000
  0.015240  0.076201  0.076201     12.000000
 -0.015240 -0.076201 -0.076201     12.000000
  0.076201  0.015240  0.076201     12.000000
 -0.076201 -0.015240 -0.076201     12.000000
  0.076201  0.076201  0.015240     12.000000
 -0.076201 -0.076201 -0.015240     12.000000
  0.076201  0.167642 -0.076201     12.000000
 -0.076201 -0.167642  0.076201     12.000000
 -0.167642 -0.076201 -0.076201     12.000000
  0.167642  0.076201  0.076201     12.000000
  0.076201 -0.076201  0.167642     12.000000
 -0.076201  0.076201 -0.167642     12.000000
  0.015240 -0.106681  0.106681     12.000000
 -0.015240  0.106681 -0.106681     12.000000
  0.076201  0.198122 -0.076201     12.000000
 -0.076201 -0.198122  0.076201     12.000000
 -0.106681 -0.106681 -0.015240     12.000000
  0.106681  0.106681  0.015240     12.000000
  0.106681  0.015240  0.106681     12.000000
 -0.106681 -0.015240 -0.106681     12.000000
 -0.015240 -0.106681  0.106681     12.000000
  0.015240  0.106681 -0.106681     12.000000
 -0.076201  0.076201 -0.198122     12.000000
  0.076201 -0.076201  0.198122     12.000000
 -0.198122 -0.076201 -0.076201     12.000000
  0.198122  0.076201  0.076201     12.000000
  0.106681 -0.015240  0.106681     12.000000
 -0.106681  0.015240 -0.106681     12.000000
  0.106681  0.106681 -0.015240     12.000000
 -0.106681 -0.106681  0.015240     12.000000
  0.045721  0.137162 -0.045721     12.000000
 -0.045721 -0.137162  0.045721     12.000000
 -0.137162 -0.045721 -0.045721     12.000000
  0.137162  0.045721  0.045721     12.000000
  0.045721 -0.045721  0.137162     12.000000
 -0.045721  0.045721 -0.137162     12.000000
 -0.137162  0.045721 -0.045721     12.000000
 -0.045721  0.137162 -0.137162     12.000000
  0.045721  0.228603 -0.045721     12.000000
 -0.045721  0.137162  0.045721     12.000000
  0.045721  0.045721  0.137162     12.000000
  0.137162  0.137162  0.045721     12.000000
  0.137162  0.045721  0.137162     12.000000
  0.045721  0.137162  0.045721     12.000000
 -0.045721 -0.137162  0.137162     12.000000
 -0.137162 -0.045721  0.045721     12.000000
[...]
  0.000   0.000   0.000   0.000   0.000   0.000   0.000   0.000   0.000   0.000   0.000   0.001   0.000   0.000   0.000   0.000
  0.023  -0.005   0.000   0.000   0.000   0.000   0.000   0.000  -0.001   0.000   0.000   0.000   0.000  -0.001   0.000   0.000
  0.000   0.000   0.001   0.000   0.003   0.000   0.000  -0.001   0.000   0.000   0.000   0.000   0.000   0.000   0.000   0.000
  0.000   0.000   0.000   0.000   0.000   0.000   0.000   0.000   0.000   0.000   0.000   0.000   0.000   0.000   0.000   0.000
  0.000   0.000  -0.004   0.000  -0.003   0.001   0.000   0.001   0.000   0.000   0.000   0.000   0.000   0.000   0.000   0.000
  0.000   0.000   0.000   0.000   0.000   0.000   0.000   0.000   0.000   0.000   0.000   0.000   0.000   0.000   0.000   0.000
  0.000   0.000   0.003   0.000   0.004  -0.001   0.000  -0.001   0.000   0.000   0.000   0.000   0.000   0.000   0.000   0.000
  0.000   0.000   0.000   0.007   0.000   0.000  -0.001   0.000   0.000   0.000   0.000   0.000   0.000   0.000   0.000   0.000
  0.000   0.000   0.003   0.000   0.001  -0.001   0.000   0.000   0.000   0.000   0.000   0.000   0.000   0.000   0.000   0.000
  0.000   0.000  -0.001   0.000   0.000   0.000   0.000   0.000   0.000   0.000   0.000   0.000   0.000   0.000   0.000   0.000
  0.000   0.000   0.000   0.000   0.000   0.000   0.000   0.000   0.000   0.000   0.000   0.000   0.000   0.000   0.000   0.000
  0.000   0.000   0.000   0.000   0.000   0.000   0.000   0.000   0.000   0.000   0.000   0.000   0.000   0.000   0.000   0.000
  0.000   0.000   0.000   0.000   0.000   0.000   0.000   0.000   0.000   0.000   0.000   0.000   0.000   0.000   0.000   0.000
  0.000   0.000   0.000   0.000   0.000   0.000   0.000   0.000   0.000   0.000   0.000   0.000   0.000   0.000   0.000   0.000
  0.000   0.000   0.000   0.000   0.000   0.000   0.000   0.000   0.000   0.000   0.000   0.000   0.000   0.000   0.000   0.000
  0.000   0.000   0.000   0.000  -0.001   0.000   0.000   0.000   0.000   0.000   0.000   0.000   0.000   0.000   0.000   0.000
 total augmentation occupancy for first ion, spin component:           4
  0.035  -0.043   0.000   0.000   0.000   0.000   0.000   0.000  -0.001   0.000   0.000   0.000   0.000  -0.006   0.000   0.004
 -0.043   0.041   0.000   0.000   0.000   0.000   0.000   0.000   0.000   0.000   0.000   0.000   0.000   0.001   0.000  -0.001
  0.000   0.000   0.006   0.000   0.000  -0.006   0.000   0.000   0.000   0.000   0.000   0.000   0.000   0.000   0.000   0.000
  0.000   0.000   0.000   0.006   0.000   0.000  -0.007   0.000   0.000   0.000   0.000   0.000   0.000   0.000   0.000   0.000
  0.000   0.000   0.000   0.000   0.006   0.000   0.000  -0.006   0.000   0.000   0.000   0.000   0.000   0.000   0.000   0.000
  0.000   0.000  -0.006   0.000   0.000   0.001   0.000   0.000   0.000   0.000   0.000   0.000   0.000   0.000   0.000   0.000
  0.000   0.000   0.000  -0.007   0.000   0.000   0.001   0.000   0.000   0.000   0.000   0.000   0.000   0.000   0.000   0.000
  0.000   0.000   0.000   0.000  -0.006   0.000   0.000   0.001   0.000   0.000   0.000   0.000   0.000   0.000   0.000   0.000
 -0.001   0.000   0.000   0.000   0.000   0.000   0.000   0.000   0.008   0.000   0.000   0.000   0.000   0.003   0.000   0.000
  0.000   0.000   0.000   0.000   0.000   0.000   0.000   0.000   0.000   0.008   0.000   0.000   0.000   0.000   0.003   0.000
  0.000   0.000   0.000   0.000   0.000   0.000   0.000   0.000   0.000   0.000   0.006   0.000   0.000   0.000   0.000   0.001
  0.000   0.000   0.000   0.000   0.000   0.000   0.000   0.000   0.000   0.000   0.000   0.008   0.000   0.000   0.000   0.000
  0.000   0.000   0.000   0.000   0.000   0.000   0.000   0.000   0.000   0.000   0.000   0.000   0.005   0.000   0.000   0.000
 -0.006   0.001   0.000   0.000   0.000   0.000   0.000   0.000   0.003   0.000   0.000   0.000   0.000  -0.010   0.000   0.000
  0.000   0.000   0.000   0.000   0.000   0.000   0.000   0.000   0.000   0.003   0.000   0.000   0.000   0.000  -0.010   0.000
  0.004  -0.001   0.000   0.000   0.000   0.000   0.000   0.000   0.000   0.000   0.001   0.000   0.000   0.000   0.000  -0.003
  0.000   0.000   0.000   0.000   0.000   0.000   0.000   0.000   0.000   0.000   0.000   0.003   0.000   0.000   0.000   0.000
  0.000   0.000   0.000   0.000   0.000   0.000   0.000   0.000   0.000   0.000   0.000   0.000   0.001   0.000   0.000   0.000
  0.000   0.000   0.000   0.000   0.001   0.000   0.000   0.000   0.000   0.000   0.000   0.000   0.000   0.000   0.000   0.000
  0.000   0.000   0.000  -0.003   0.000   0.000   0.001   0.000   0.000   0.000   0.000   0.000   0.000   0.000   0.000   0.000
  0.000   0.000   0.004   0.000   0.001  -0.001   0.000  -0.001   0.000   0.000   0.000   0.000   0.000   0.000   0.000   0.000
  0.000   0.000   0.000  -0.006   0.000   0.000   0.002   0.000   0.000   0.000   0.000   0.000   0.000   0.000   0.000   0.000
  0.000   0.000   0.001   0.000   0.004  -0.001   0.000  -0.001   0.000   0.000   0.000   0.000   0.000   0.000   0.000   0.000
  0.000   0.000   0.000   0.000   0.000   0.000   0.000   0.000   0.000   0.000   0.000   0.000   0.000   0.000   0.000   0.000
  0.000   0.000  -0.001   0.000   0.000   0.000   0.000   0.000   0.000   0.000   0.000   0.000   0.000   0.000   0.000   0.000
  0.000   0.000   0.001   0.000   0.000   0.000   0.000   0.000   0.000   0.000   0.000   0.000   0.000   0.000   0.000   0.000
  0.000   0.000   0.000   0.001   0.000   0.000   0.000   0.000   0.000   0.000   0.000   0.000   0.000   0.000   0.000   0.000
  0.000   0.000   0.001   0.000   0.000   0.000   0.000   0.000   0.000   0.000   0.000   0.000   0.000   0.000   0.000   0.000
  0.000   0.000   0.000  -0.001   0.000   0.000   0.000   0.000   0.000   0.000   0.000   0.000   0.000   0.000   0.000   0.000
  0.000   0.000   0.000   0.000   0.001   0.000   0.000   0.000   0.000   0.000   0.000   0.000   0.000   0.000   0.000   0.000
  0.000   0.000   0.000   0.000   0.000   0.000   0.000   0.000   0.000   0.000   0.000   0.000   0.000   0.000   0.000   0.000
  0.000   0.000   0.000   0.000  -0.001   0.000   0.000   0.000   0.000   0.000   0.000   0.000   0.000   0.000   0.000   0.000


------------------------ aborting loop because EDIFF is reached ----------------------------------------


 


 total charge     
 
# of ion     s       p       d       f       tot
------------------------------------------------
  1        2.146   5.957   0.707   2.839  11.648
  2        1.576   3.480   0.000   0.000   5.056
  3        1.576   3.480   0.000   0.000   5.056
------------------------------------------------
tot        5.298  12.917   0.707   2.839  21.761

 


 magnetization (x)
 
# of ion     s       p       d       f       tot
------------------------------------------------
  1       -0.000  -0.000  -0.000  -0.003  -0.003
  2        0.000   0.000   0.000   0.000   0.000
  3        0.000   0.000   0.000   0.000   0.000
------------------------------------------------
tot       -0.000   0.000  -0.000  -0.003  -0.003

 


 magnetization (y)
 
# of ion     s       p       d       f       tot
------------------------------------------------
  1       -0.000  -0.000  -0.000  -0.000  -0.000
  2        0.000   0.000   0.000   0.000   0.000
  3        0.000   0.000   0.000   0.000   0.000
------------------------------------------------
tot       -0.000   0.000  -0.000  -0.000  -0.000

 


 magnetization (z)
 
# of ion     s       p       d       f       tot
------------------------------------------------
  1        0.005   0.002   0.018   1.331   1.356
  2       -0.002  -0.028   0.000   0.000  -0.029
  3       -0.002  -0.028   0.000   0.000  -0.029
------------------------------------------------
tot        0.002  -0.054   0.018   1.331   1.297

 
    CHARGE:  cpu time    5.67: real time    5.67
    FORLOC:  cpu time    0.00: real time    0.00
    FORNL :  cpu time    4.85: real time    4.85
    STRESS:  cpu time    9.28: real time    9.28
    FORCOR:  cpu time    0.02: real time    0.02
    FORHAR:  cpu time    0.01: real time    0.01
    MIXING:  cpu time    0.00: real time    0.00
    FORVDW:  cpu time    0.00: real time    0.00

  FORCE on cell =-STRESS in cart. coord.  units (eV):
  Direction    XX          YY          ZZ          XY          YZ          ZX
  --------------------------------------------------------------------------------------
  Alpha Z   151.51828   151.51828   151.51828
  Ewald    -692.01109  -692.01109  -692.01109     0.00000     0.00000     0.00000
  Hartree   131.11320   131.11320   131.09916     0.06068     0.00151     0.00149
  E(xc)    -116.03995  -116.03995  -116.03541    -0.00147    -0.00006    -0.00006
  Local     -30.65959   -30.65931   -30.42326    -0.13401    -0.00552    -0.00558
  n-local    61.20961    61.20966    61.27832     0.00695    -0.00179    -0.00190
  augment     3.46921     3.46904     3.34663    -0.00023     0.00284     0.00290
  Kinetic   490.33092   490.33065   490.04342     0.01457     0.00241     0.00239
  Fock        0.00000     0.00000     0.00000     0.00000     0.00000     0.00000
  -------------------------------------------------------------------------------------
  Total      -1.06943    -1.06951    -1.18396    -0.05351    -0.00062    -0.00075
  in kB     -41.92140   -41.92461   -46.41104    -2.09756    -0.02437    -0.02958
  external pressure =      -43.42 kB  Pullay stress =        0.00 kB


 VOLUME and BASIS-vectors are now :
 -----------------------------------------------------------------------------
  energy-cutoff  :      420.00
  volume of cell :       40.87
      direct lattice vectors                 reciprocal lattice vectors
    -2.734000000  0.000000000  2.734000000    -0.182882224 -0.182882224  0.182882224
     0.000000000  2.734000000  2.734000000     0.182882224  0.182882224  0.182882224
    -2.734000000  2.734000000  0.000000000    -0.182882224  0.182882224 -0.182882224

  length of vectors
     3.866459880  3.866459880  3.866459880     0.316761304  0.316761304  0.316761304


 FORCES acting on ions
    electron-ion (+dipol)            ewald-force                    non-local-force                 convergence-correction
 -----------------------------------------------------------------------------------------------
   0.348E-04 0.325E-05 -.291E-05   -.348E-14 -.360E-15 -.197E-14   -.482E-05 0.788E-06 0.924E-05   -.304E-04 -.281E-05 -.431E-05
   -.493E-04 -.392E-04 0.173E-01   0.949E-14 0.960E-14 0.374E-14   0.352E-03 0.357E-03 -.194E-01   -.102E-03 -.117E-03 0.942E-03
   0.556E-04 0.346E-04 -.173E-01   -.551E-14 -.813E-14 -.223E-14   -.353E-03 -.366E-03 0.194E-01   0.942E-04 0.129E-03 -.943E-03
 -----------------------------------------------------------------------------------------------
   0.411E-04 -.134E-05 -.432E-05   0.499E-15 0.111E-14 -.464E-15   -.549E-05 -.754E-05 0.119E-04   -.385E-04 0.952E-05 -.572E-05
 
 
 POSITION                                       TOTAL-FORCE (eV/Angst)
 -----------------------------------------------------------------------------------
      0.00000      0.00000      0.00000         0.000001      0.000001      0.000001
     -4.10100      4.10100      4.10100         0.000201      0.000201     -0.001235
     -1.36700      1.36700      1.36700        -0.000202     -0.000202      0.001233
 -----------------------------------------------------------------------------------
    total drift:                               -0.000003      0.000001      0.000002


--------------------------------------------------------------------------------------------------------



  FREE ENERGIE OF THE ION-ELECTRON SYSTEM (eV)
  ---------------------------------------------------
  free  energy   TOTEN  =        65.45896626 eV

  energy  without entropy=       65.45896626  energy(sigma->0) =       65.45896626
 


--------------------------------------------------------------------------------------------------------


    POTLOK:  cpu time    1.10: real time    1.10


--------------------------------------------------------------------------------------------------------


 writing wavefunctions
     LOOP+:  cpu time 1041.23: real time 1210.14
    4ORBIT:  cpu time    0.00: real time    0.00
 


 orbital moment (x)
 
 # of ion     p       d       f       tot
 ------------------------------------------------
  1         0.000   0.000  -1.202  -1.203
  2         0.000   0.000   0.000   0.000
  3         0.000   0.000   0.000   0.000
 ------------------------------------------------
            0.000   0.000  -1.202  -1.202
 


 orbital moment (y)
 
 # of ion     p       d       f       tot
 ------------------------------------------------
  1         0.000   0.000  -1.201  -1.202
  2         0.000   0.000   0.000   0.000
  3         0.000   0.000   0.000   0.000
 ------------------------------------------------
            0.000   0.000  -1.201  -1.202
 


 orbital moment (z)
 
 # of ion     p       d       f       tot
 ------------------------------------------------
  1         0.000   0.000  -0.006  -0.006
  2         0.000   0.000   0.000   0.000
  3         0.000   0.000   0.000   0.000
 ------------------------------------------------
            0.000   0.000  -0.006  -0.006

 Spin-Orbit-Coupling matrix elements

 Ion:    1  E_soc:     -6.1993633
 l=   1
     0.0000000    -0.8960986    -0.8965379
    -0.8960986     0.0000000    -0.8960990
    -0.8965379    -0.8960990     0.0000000
 l=   2
     0.0000000    -0.0011009     0.0000000    -0.0011009    -0.0038101
    -0.0011009     0.0000000    -0.0028335    -0.0011251    -0.0009460
     0.0000000    -0.0028335     0.0000000    -0.0028336     0.0000000
    -0.0011009    -0.0011251    -0.0028336     0.0000000    -0.0009460
    -0.0038101    -0.0009460     0.0000000    -0.0009460     0.0000000
 l=   3
     0.0000000    -0.0062575     0.0000000     0.0000000     0.0000000    -0.0212586    -0.0939527
    -0.0062575     0.0000000    -0.0110420     0.0000000    -0.0110424    -0.0179231    -0.0062580
     0.0000000    -0.0110420     0.0000000    -0.0728158    -0.0138609    -0.0238883     0.0000000
     0.0000000     0.0000000    -0.0728158     0.0000000    -0.0728101     0.0000000     0.0000000
     0.0000000    -0.0110424    -0.0138609    -0.0728101     0.0000000    -0.0238836     0.0000000
    -0.0212586    -0.0179231    -0.0238883     0.0000000    -0.0238836     0.0000000    -0.0212570
    -0.0939527    -0.0062580     0.0000000     0.0000000     0.0000000    -0.0212570     0.0000000

 Ion:    2  E_soc:     -0.0010727
 l=   1
     0.0000000    -0.0001762    -0.0001838
    -0.0001762     0.0000000    -0.0001762
    -0.0001838    -0.0001762     0.0000000
 l=   2
     0.0000000     0.0000000     0.0000000     0.0000000     0.0000000
     0.0000000     0.0000000     0.0000000     0.0000000     0.0000000
     0.0000000     0.0000000     0.0000000     0.0000000     0.0000000
     0.0000000     0.0000000     0.0000000     0.0000000     0.0000000
     0.0000000     0.0000000     0.0000000     0.0000000     0.0000000
 l=   3
     0.0000000     0.0000000     0.0000000     0.0000000     0.0000000     0.0000000     0.0000000
     0.0000000     0.0000000     0.0000000     0.0000000     0.0000000     0.0000000     0.0000000
     0.0000000     0.0000000     0.0000000     0.0000000     0.0000000     0.0000000     0.0000000
     0.0000000     0.0000000     0.0000000     0.0000000     0.0000000     0.0000000     0.0000000
     0.0000000     0.0000000     0.0000000     0.0000000     0.0000000     0.0000000     0.0000000
     0.0000000     0.0000000     0.0000000     0.0000000     0.0000000     0.0000000     0.0000000
     0.0000000     0.0000000     0.0000000     0.0000000     0.0000000     0.0000000     0.0000000

 Ion:    3  E_soc:     -0.0010727
 l=   1
     0.0000000    -0.0001762    -0.0001838
    -0.0001762     0.0000000    -0.0001762
    -0.0001838    -0.0001762     0.0000000
 l=   2
     0.0000000     0.0000000     0.0000000     0.0000000     0.0000000
     0.0000000     0.0000000     0.0000000     0.0000000     0.0000000
     0.0000000     0.0000000     0.0000000     0.0000000     0.0000000
     0.0000000     0.0000000     0.0000000     0.0000000     0.0000000
     0.0000000     0.0000000     0.0000000     0.0000000     0.0000000
 l=   3
     0.0000000     0.0000000     0.0000000     0.0000000     0.0000000     0.0000000     0.0000000
     0.0000000     0.0000000     0.0000000     0.0000000     0.0000000     0.0000000     0.0000000
     0.0000000     0.0000000     0.0000000     0.0000000     0.0000000     0.0000000     0.0000000
     0.0000000     0.0000000     0.0000000     0.0000000     0.0000000     0.0000000     0.0000000
     0.0000000     0.0000000     0.0000000     0.0000000     0.0000000     0.0000000     0.0000000
     0.0000000     0.0000000     0.0000000     0.0000000     0.0000000     0.0000000     0.0000000
     0.0000000     0.0000000     0.0000000     0.0000000     0.0000000     0.0000000     0.0000000
 


 total charge     
 
# of ion     s       p       d       f       tot
------------------------------------------------
  1        2.146   5.957   0.707   2.839  11.648
  2        1.576   3.480   0.000   0.000   5.056
  3        1.576   3.480   0.000   0.000   5.056
------------------------------------------------
tot        5.298  12.917   0.707   2.839  21.761

 


 magnetization (x)
 
# of ion     s       p       d       f       tot
------------------------------------------------
  1       -0.000  -0.000  -0.000  -0.003  -0.003
  2        0.000   0.000   0.000   0.000   0.000
  3        0.000   0.000   0.000   0.000   0.000
------------------------------------------------
tot       -0.000   0.000  -0.000  -0.003  -0.003

 


 magnetization (y)
 
# of ion     s       p       d       f       tot
------------------------------------------------
  1       -0.000  -0.000  -0.000  -0.000  -0.000
  2        0.000   0.000   0.000   0.000   0.000
  3        0.000   0.000   0.000   0.000   0.000
------------------------------------------------
tot       -0.000   0.000  -0.000  -0.000  -0.000

 


 magnetization (z)
 
# of ion     s       p       d       f       tot
------------------------------------------------
  1        0.005   0.002   0.018   1.331   1.356
  2       -0.002  -0.028   0.000   0.000  -0.029
  3       -0.002  -0.028   0.000   0.000  -0.029
------------------------------------------------
tot        0.002  -0.054   0.018   1.331   1.297

 
 BZINTS: Fermi energy:  9.556315; 26.000000 electrons
         Band energy: -94.231180;  BLOECHL correction: -0.002971
 BZINTS: Fermi energy:  9.556315; 26.000000 electrons
         Band energy: -94.231180;  BLOECHL correction: -0.002971
 BZINTS: Fermi energy:  9.556315; 26.000000 electrons
         Band energy: -94.231180;  BLOECHL correction: -0.002971
 BZINTS: Fermi energy:  9.556315; 26.000000 electrons
         Band energy: -94.231180;  BLOECHL correction: -0.002971

 total amount of memory used by VASP on root node   246130. kBytes
========================================================================

   base      :      30000. kBytes
   nonl-proj :      54417. kBytes
   fftplans  :       1573. kBytes
   grid      :       5669. kBytes
   one-center:        196. kBytes
   wavefun   :     154275. kBytes
 
  
  
 General timing and accounting informations for this job:
 ========================================================
  
                  Total CPU time used (sec):     1088.594
                            User time (sec):     1046.367
                          System time (sec):       42.227
                         Elapsed time (sec):     1261.710
  
                   Maximum memory used (kb):      559092.
                   Average memory used (kb):           0.
  
                          Minor page faults:        70339
                          Major page faults:           46
                 Voluntary context switches:        32146
