LIO                                     
           1
    -2.734000    0.000000    2.734000
     0.000000    2.734000    2.734000
    -2.734000    2.734000    0.000000
   U    O 
   1   2
LIO                                     
           1
    -2.734000    0.000000    2.734000
     0.000000    2.734000    2.734000
    -2.734000    2.734000    0.000000
   U    O 
   1   2
Direct configuration=     1
   0.00000000  0.00000000  0.00000000
   0.75000000  0.75000000  0.75000000
   0.25000000  0.25000000  0.25000000
