    3    3    1    1
  0.1362399E+02  0.3866460E-09  0.3866460E-09  0.3866460E-09  0.5000000E-15
  1.000000000000000E-004
  CAR 
 LIO                                     
   26  864   40
 
  0.8333333E-01  0.8333333E-01  0.8333333E-01  0.1157407E-02
   1      -34.582243
   2      -33.950434
   3      -15.453240
   4      -15.221537
   5      -10.342947
   6      -10.334073
   7       -8.938378
   8       -8.905759
   9       -7.347722
  10       -7.146778
  11       -7.014111
  12       -6.836859
  13        2.684675
  14        2.695036
  15        2.725005
  16        2.729604
  17        2.814812
  18        2.846681
  19        5.223288
  20        5.259193
  21        5.362140
  22        5.394642
  23        5.438958
  24        5.478256
  25        9.604100
  26        9.651184
  27        9.779974
  28       10.172249
  29       10.204463
  30       10.284549
  31       10.834907
  32       10.908957
  33       10.944059
  34       11.042430
  35       11.217871
  36       11.322235
  37       11.403417
  38       11.513063
  39       12.035765
  40       12.157672
 
 -0.8333333E-01 -0.8333333E-01 -0.8333333E-01  0.1157407E-02
   1      -34.582243
   2      -33.950434
   3      -15.453240
   4      -15.221537
   5      -10.342947
   6      -10.334073
   7       -8.938378
   8       -8.905759
   9       -7.347722
  10       -7.146778
  11       -7.014111
  12       -6.836859
  13        2.684675
  14        2.695036
  15        2.725005
  16        2.729604
  17        2.814812
  18        2.846681
  19        5.223288
  20        5.259193
  21        5.362140
  22        5.394642
  23        5.438958
  24        5.478256
  25        9.604100
  26        9.651184
  27        9.779974
  28       10.172249
  29       10.204463
  30       10.284549
  31       10.834907
  32       10.908957
  33       10.944059
  34       11.042430
  35       11.217871
  36       11.322235
  37       11.403417
  38       11.513063
  39       12.035766
  40       12.157672
 
  0.8333333E-01  0.0000000E+00  0.0000000E+00  0.1157407E-02
   1      -34.582243
   2      -33.950434
   3      -15.453269
   4      -15.221508
   5      -10.342953
   6      -10.334084
   7       -8.938375
   8       -8.905758
   9       -7.347127
  10       -7.147404
  11       -7.014330
  12       -6.836596
  13        2.684742
  14        2.695000
  15        2.725019
  16        2.729667
  17        2.814771
  18        2.846622
  19        5.223221
  20        5.259300
  21        5.361995
  22        5.394536
  23        5.439296
  24        5.478133
  25        9.604225
  26        9.651046
  27        9.779906
  28       10.172611
  29       10.204098
  30       10.284641
  31       10.834584
  32       10.909327
  33       10.944016
  34       11.042251
  35       11.217877
  36       11.322025
  37       11.403966
  38       11.512890
  39       12.035760
  40       12.157668
 
 -0.8333333E-01  0.0000000E+00  0.0000000E+00  0.1157407E-02
   1      -34.582243
   2      -33.950434
   3      -15.453269
   4      -15.221508
   5      -10.342953
   6      -10.334084
   7       -8.938375
   8       -8.905758
   9       -7.347127
  10       -7.147404
  11       -7.014330
  12       -6.836596
  13        2.684742
  14        2.695000
  15        2.725019
  16        2.729667
  17        2.814771
  18        2.846622
  19        5.223221
  20        5.259300
  21        5.361995
  22        5.394536
  23        5.439296
  24        5.478133
  25        9.604225
  26        9.651046
  27        9.779906
  28       10.172611
  29       10.204098
  30       10.284641
  31       10.834584
  32       10.909327
  33       10.944016
  34       11.042251
  35       11.217877
  36       11.322024
  37       11.403966
  38       11.512890
  39       12.035760
  40       12.157668
 
  0.0000000E+00  0.0000000E+00 -0.8333333E-01  0.1157407E-02
   1      -34.582243
   2      -33.950434
   3      -15.453231
   4      -15.221547
   5      -10.342957
   6      -10.334057
   7       -8.938378
   8       -8.905759
   9       -7.347938
  10       -7.146512
  11       -7.014042
  12       -6.836983
  13        2.684657
  14        2.695055
  15        2.724996
  16        2.729599
  17        2.814820
  18        2.846684
  19        5.223305
  20        5.259159
  21        5.362188
  22        5.394672
  23        5.438856
  24        5.478296
  25        9.604078
  26        9.651204
  27        9.779995
  28       10.172090
  29       10.204611
  30       10.284532
  31       10.835012
  32       10.908796
  33       10.944096
  34       11.042486
  35       11.217846
  36       11.322324
  37       11.403266
  38       11.513119
  39       12.035767
  40       12.157671
 
  0.0000000E+00  0.0000000E+00  0.8333333E-01  0.1157407E-02
   1      -34.582243
   2      -33.950434
   3      -15.453231
   4      -15.221547
   5      -10.342957
   6      -10.334057
   7       -8.938378
   8       -8.905759
   9       -7.347938
  10       -7.146511
  11       -7.014042
  12       -6.836983
  13        2.684657
  14        2.695055
  15        2.724996
  16        2.729599
  17        2.814820
  18        2.846684
  19        5.223305
  20        5.259159
  21        5.362188
  22        5.394672
  23        5.438856
  24        5.478296
  25        9.604078
  26        9.651204
  27        9.779995
  28       10.172090
  29       10.204611
  30       10.284532
  31       10.835012
  32       10.908796
  33       10.944096
  34       11.042486
  35       11.217846
  36       11.322324
  37       11.403266
  38       11.513119
  39       12.035767
  40       12.157671
 
  0.0000000E+00  0.8333333E-01  0.0000000E+00  0.1157407E-02
   1      -34.582243
   2      -33.950434
   3      -15.453206
   4      -15.221579
   5      -10.342966
   6      -10.334030
   7       -8.938377
   8       -8.905756
   9       -7.348534
  10       -7.145638
  11       -7.013879
  12       -6.837438
  13        2.684624
  14        2.695156
  15        2.724939
  16        2.729634
  17        2.814806
  18        2.846658
  19        5.223350
  20        5.259035
  21        5.362354
  22        5.394791
  23        5.438537
  24        5.478410
  25        9.603925
  26        9.651331
  27        9.780064
  28       10.171567
  29       10.205078
  30       10.284510
  31       10.835249
  32       10.908290
  33       10.944291
  34       11.042619
  35       11.217690
  36       11.322703
  37       11.402888
  38       11.513254
  39       12.035766
  40       12.157668
 
  0.0000000E+00 -0.8333333E-01  0.0000000E+00  0.1157407E-02
   1      -34.582243
   2      -33.950434
   3      -15.453206
   4      -15.221579
   5      -10.342966
   6      -10.334030
   7       -8.938377
   8       -8.905756
   9       -7.348534
  10       -7.145638
  11       -7.013879
  12       -6.837438
  13        2.684624
  14        2.695156
  15        2.724939
  16        2.729634
  17        2.814807
  18        2.846658
  19        5.223350
  20        5.259035
  21        5.362354
  22        5.394790
  23        5.438537
  24        5.478410
  25        9.603925
  26        9.651331
  27        9.780064
  28       10.171567
  29       10.205078
  30       10.284510
  31       10.835249
  32       10.908290
  33       10.944291
  34       11.042619
  35       11.217690
  36       11.322703
  37       11.402888
  38       11.513254
  39       12.035766
  40       12.157668
 
  0.2500000E+00  0.8333333E-01  0.8333333E-01  0.1157407E-02
   1      -34.558547
   2      -33.925365
   3      -15.610053
   4      -15.388337
   5      -10.644538
   6      -10.605234
   7       -9.180169
   8       -9.156916
   9       -7.363539
  10       -7.064681
  11       -6.611894
  12       -6.389499
  13        2.953202
  14        2.988541
  15        3.022103
  16        3.059460
  17        3.460729
  18        3.505656
  19        4.738229
  20        4.797148
  21        5.169508
  22        5.236685
  23        5.613389
  24        5.695522
  25        9.475536
  26        9.633998
  27        9.717525
  28       10.011250
  29       10.091408
  30       10.188722
  31       10.617418
  32       10.762283
  33       10.868146
  34       10.888808
  35       11.031679
  36       11.185765
  37       11.262321
  38       11.419592
  39       13.134639
  40       13.254324
 
 -0.2500000E+00 -0.8333333E-01 -0.8333333E-01  0.1157407E-02
   1      -34.558547
   2      -33.925365
   3      -15.610053
   4      -15.388337
   5      -10.644538
   6      -10.605234
   7       -9.180169
   8       -9.156916
   9       -7.363539
  10       -7.064681
  11       -6.611894
  12       -6.389499
  13        2.953202
  14        2.988541
  15        3.022103
  16        3.059460
  17        3.460729
  18        3.505656
  19        4.738229
  20        4.797148
  21        5.169508
  22        5.236685
  23        5.613389
  24        5.695522
  25        9.475536
  26        9.633998
  27        9.717525
  28       10.011250
  29       10.091408
  30       10.188722
  31       10.617418
  32       10.762283
  33       10.868146
  34       10.888808
  35       11.031680
  36       11.185765
  37       11.262321
  38       11.419592
  39       13.134640
  40       13.254324
 
  0.8333333E-01  0.2500000E+00  0.8333333E-01  0.1157407E-02
   1      -34.558547
   2      -33.925365
   3      -15.609752
   4      -15.388674
   5      -10.644561
   6      -10.605059
   7       -9.180100
   8       -9.157007
   9       -7.365689
  10       -7.062096
  11       -6.611797
  12       -6.390121
  13        2.953180
  14        2.988517
  15        3.022099
  16        3.059443
  17        3.460752
  18        3.505685
  19        4.738236
  20        4.797176
  21        5.169606
  22        5.236551
  23        5.613346
  24        5.695551
  25        9.475273
  26        9.634296
  27        9.718158
  28       10.010340
  29       10.091448
  30       10.188355
  31       10.618745
  32       10.762832
  33       10.868981
  34       10.887582
  35       11.031474
  36       11.184877
  37       11.261772
  38       11.420324
  39       13.134675
  40       13.254300
 
 -0.8333333E-01 -0.2500000E+00 -0.8333333E-01  0.1157407E-02
   1      -34.558547
   2      -33.925365
   3      -15.609752
   4      -15.388674
   5      -10.644561
   6      -10.605059
   7       -9.180100
   8       -9.157007
   9       -7.365689
  10       -7.062096
  11       -6.611797
  12       -6.390121
  13        2.953180
  14        2.988517
  15        3.022099
  16        3.059443
  17        3.460752
  18        3.505685
  19        4.738236
  20        4.797176
  21        5.169606
  22        5.236551
  23        5.613346
  24        5.695551
  25        9.475273
  26        9.634296
  27        9.718158
  28       10.010340
  29       10.091448
  30       10.188355
  31       10.618745
  32       10.762832
  33       10.868981
  34       10.887582
  35       11.031474
  36       11.184877
  37       11.261772
  38       11.420324
  39       13.134673
  40       13.254295
 
  0.8333333E-01  0.8333333E-01  0.2500000E+00  0.1157407E-02
   1      -34.558543
   2      -33.925366
   3      -15.614768
   4      -15.383196
   5      -10.636634
   6      -10.616762
   7       -9.185319
   8       -9.149384
   9       -7.286316
  10       -7.151246
  11       -6.622534
  12       -6.368922
  13        2.955070
  14        2.986512
  15        3.022115
  16        3.058831
  17        3.462901
  18        3.504495
  19        4.735274
  20        4.798499
  21        5.161518
  22        5.241401
  23        5.626361
  24        5.688597
  25        9.516775
  26        9.601264
  27        9.670004
  28       10.064270
  29       10.123586
  30       10.157533
  31       10.613789
  32       10.787133
  33       10.804862
  34       10.886267
  35       11.041674
  36       11.177599
  37       11.342600
  38       11.365533
  39       13.134086
  40       13.255547
 
 -0.8333333E-01 -0.8333333E-01 -0.2500000E+00  0.1157407E-02
   1      -34.558543
   2      -33.925366
   3      -15.614768
   4      -15.383196
   5      -10.636634
   6      -10.616762
   7       -9.185319
   8       -9.149384
   9       -7.286316
  10       -7.151246
  11       -6.622534
  12       -6.368922
  13        2.955070
  14        2.986512
  15        3.022115
  16        3.058831
  17        3.462901
  18        3.504495
  19        4.735274
  20        4.798499
  21        5.161518
  22        5.241401
  23        5.626361
  24        5.688597
  25        9.516775
  26        9.601264
  27        9.670004
  28       10.064270
  29       10.123586
  30       10.157533
  31       10.613789
  32       10.787132
  33       10.804862
  34       10.886267
  35       11.041674
  36       11.177599
  37       11.342600
  38       11.365533
  39       13.134086
  40       13.255547
 
  0.8333333E-01  0.0000000E+00 -0.1666667E+00  0.1157407E-02
   1      -34.558547
   2      -33.925365
   3      -15.609935
   4      -15.388456
   5      -10.644533
   6      -10.605189
   7       -9.180152
   8       -9.156933
   9       -7.364434
  10       -7.063793
  11       -6.611755
  12       -6.389674
  13        2.953205
  14        2.988496
  15        3.022105
  16        3.059409
  17        3.460751
  18        3.505698
  19        4.738241
  20        4.797158
  21        5.169526
  22        5.236658
  23        5.613373
  24        5.695512
  25        9.475429
  26        9.634369
  27        9.717586
  28       10.011010
  29       10.091158
  30       10.188706
  31       10.618090
  32       10.762083
  33       10.869448
  34       10.887875
  35       11.031572
  36       11.185184
  37       11.262129
  38       11.419816
  39       13.134656
  40       13.254315
 
 -0.8333333E-01  0.0000000E+00  0.1666667E+00  0.1157407E-02
   1      -34.558547
   2      -33.925365
   3      -15.609935
   4      -15.388456
   5      -10.644533
   6      -10.605189
   7       -9.180152
   8       -9.156932
   9       -7.364434
  10       -7.063793
  11       -6.611755
  12       -6.389674
  13        2.953205
  14        2.988496
  15        3.022105
  16        3.059409
  17        3.460751
  18        3.505698
  19        4.738241
  20        4.797159
  21        5.169526
  22        5.236658
  23        5.613373
  24        5.695512
  25        9.475429
  26        9.634369
  27        9.717586
  28       10.011010
  29       10.091158
  30       10.188706
  31       10.618090
  32       10.762083
  33       10.869448
  34       10.887875
  35       11.031572
  36       11.185184
  37       11.262129
  38       11.419816
  39       13.134656
  40       13.254314
 
  0.2500000E+00  0.1666667E+00  0.1666667E+00  0.1157407E-02
   1      -34.558547
   2      -33.925365
   3      -15.609978
   4      -15.388409
   5      -10.644522
   6      -10.605223
   7       -9.180165
   8       -9.156915
   9       -7.364110
  10       -7.064167
  11       -6.611787
  12       -6.389578
  13        2.953211
  14        2.988498
  15        3.022107
  16        3.059412
  17        3.460745
  18        3.505694
  19        4.738240
  20        4.797156
  21        5.169516
  22        5.236672
  23        5.613379
  24        5.695508
  25        9.475431
  26        9.634357
  27        9.717505
  28       10.011152
  29       10.091143
  30       10.188750
  31       10.617890
  32       10.762020
  33       10.869339
  34       10.888048
  35       11.031601
  36       11.185311
  37       11.262194
  38       11.419713
  39       13.134650
  40       13.254319
 
 -0.2500000E+00 -0.1666667E+00 -0.1666667E+00  0.1157407E-02
   1      -34.558547
   2      -33.925365
   3      -15.609978
   4      -15.388409
   5      -10.644521
   6      -10.605223
   7       -9.180165
   8       -9.156916
   9       -7.364110
  10       -7.064167
  11       -6.611787
  12       -6.389578
  13        2.953211
  14        2.988498
  15        3.022107
  16        3.059412
  17        3.460745
  18        3.505695
  19        4.738240
  20        4.797156
  21        5.169515
  22        5.236672
  23        5.613379
  24        5.695508
  25        9.475431
  26        9.634357
  27        9.717505
  28       10.011152
  29       10.091143
  30       10.188750
  31       10.617890
  32       10.762019
  33       10.869339
  34       10.888048
  35       11.031601
  36       11.185311
  37       11.262194
  38       11.419713
  39       13.134651
  40       13.254319
 
  0.8333333E-01 -0.1666667E+00  0.0000000E+00  0.1157407E-02
   1      -34.558543
   2      -33.925365
   3      -15.614717
   4      -15.383286
   5      -10.636680
   6      -10.616677
   7       -9.185295
   8       -9.149371
   9       -7.287616
  10       -7.149580
  11       -6.622595
  12       -6.369273
  13        2.955150
  14        2.986522
  15        3.022167
  16        3.058797
  17        3.462863
  18        3.504472
  19        4.735251
  20        4.798498
  21        5.161558
  22        5.241423
  23        5.626341
  24        5.688592
  25        9.516291
  26        9.601971
  27        9.669762
  28       10.063495
  29       10.123539
  30       10.158180
  31       10.613913
  32       10.786892
  33       10.805163
  34       10.885829
  35       11.041944
  36       11.177219
  37       11.343017
  38       11.365678
  39       13.134081
  40       13.255530
 
 -0.8333333E-01  0.1666667E+00  0.0000000E+00  0.1157407E-02
   1      -34.558543
   2      -33.925365
   3      -15.614717
   4      -15.383286
   5      -10.636680
   6      -10.616677
   7       -9.185295
   8       -9.149371
   9       -7.287616
  10       -7.149580
  11       -6.622595
  12       -6.369273
  13        2.955150
  14        2.986522
  15        3.022167
  16        3.058797
  17        3.462863
  18        3.504472
  19        4.735251
  20        4.798498
  21        5.161558
  22        5.241423
  23        5.626341
  24        5.688592
  25        9.516291
  26        9.601971
  27        9.669762
  28       10.063495
  29       10.123539
  30       10.158180
  31       10.613913
  32       10.786892
  33       10.805163
  34       10.885829
  35       11.041944
  36       11.177219
  37       11.343017
  38       11.365678
  39       13.134081
  40       13.255531
 
  0.0000000E+00  0.1666667E+00 -0.8333333E-01  0.1157407E-02
   1      -34.558547
   2      -33.925365
   3      -15.609732
   4      -15.388696
   5      -10.644565
   6      -10.605043
   7       -9.180088
   8       -9.157025
   9       -7.365813
  10       -7.061949
  11       -6.611786
  12       -6.390158
  13        2.953171
  14        2.988526
  15        3.022091
  16        3.059447
  17        3.460756
  18        3.505684
  19        4.738237
  20        4.797178
  21        5.169615
  22        5.236540
  23        5.613341
  24        5.695556
  25        9.475293
  26        9.634209
  27        9.718263
  28       10.010294
  29       10.091519
  30       10.188243
  31       10.618818
  32       10.762997
  33       10.868773
  34       10.887614
  35       11.031523
  36       11.184876
  37       11.261622
  38       11.420413
  39       13.134676
  40       13.254292
 
  0.0000000E+00 -0.1666667E+00  0.8333333E-01  0.1157407E-02
   1      -34.558547
   2      -33.925365
   3      -15.609732
   4      -15.388696
   5      -10.644565
   6      -10.605043
   7       -9.180088
   8       -9.157025
   9       -7.365813
  10       -7.061949
  11       -6.611786
  12       -6.390158
  13        2.953171
  14        2.988526
  15        3.022091
  16        3.059447
  17        3.460756
  18        3.505684
  19        4.738237
  20        4.797178
  21        5.169615
  22        5.236540
  23        5.613341
  24        5.695556
  25        9.475293
  26        9.634209
  27        9.718263
  28       10.010294
  29       10.091518
  30       10.188243
  31       10.618818
  32       10.762997
  33       10.868773
  34       10.887614
  35       11.031524
  36       11.184877
  37       11.261622
  38       11.420413
  39       13.134677
  40       13.254293
 
  0.1666667E+00  0.0000000E+00 -0.8333333E-01  0.1157407E-02
   1      -34.558547
   2      -33.925365
   3      -15.610033
   4      -15.388358
   5      -10.644542
   6      -10.605218
   7       -9.180158
   8       -9.156933
   9       -7.363662
  10       -7.064532
  11       -6.611887
  12       -6.389535
  13        2.953194
  14        2.988550
  15        3.022095
  16        3.059462
  17        3.460733
  18        3.505655
  19        4.738229
  20        4.797150
  21        5.169515
  22        5.236673
  23        5.613386
  24        5.695528
  25        9.475559
  26        9.633906
  27        9.717630
  28       10.011207
  29       10.091473
  30       10.188615
  31       10.617492
  32       10.762445
  33       10.867947
  34       10.888831
  35       11.031730
  36       11.185762
  37       11.262173
  38       11.419682
  39       13.134643
  40       13.254321
 
 -0.1666667E+00  0.0000000E+00  0.8333333E-01  0.1157407E-02
   1      -34.558547
   2      -33.925365
   3      -15.610033
   4      -15.388358
   5      -10.644542
   6      -10.605218
   7       -9.180158
   8       -9.156933
   9       -7.363662
  10       -7.064532
  11       -6.611887
  12       -6.389535
  13        2.953194
  14        2.988550
  15        3.022095
  16        3.059462
  17        3.460733
  18        3.505655
  19        4.738229
  20        4.797150
  21        5.169515
  22        5.236673
  23        5.613386
  24        5.695528
  25        9.475559
  26        9.633906
  27        9.717630
  28       10.011207
  29       10.091473
  30       10.188615
  31       10.617492
  32       10.762445
  33       10.867947
  34       10.888831
  35       11.031730
  36       11.185762
  37       11.262173
  38       11.419682
  39       13.134645
  40       13.254321
 
 -0.1666667E+00 -0.1666667E+00 -0.2500000E+00  0.1157407E-02
   1      -34.558543
   2      -33.925366
   3      -15.614790
   4      -15.383173
   5      -10.636606
   6      -10.616801
   7       -9.185321
   8       -9.149384
   9       -7.285843
  10       -7.151750
  11       -6.622539
  12       -6.368876
  13        2.955067
  14        2.986524
  15        3.022108
  16        3.058836
  17        3.462899
  18        3.504491
  19        4.735273
  20        4.798499
  21        5.161516
  22        5.241403
  23        5.626364
  24        5.688595
  25        9.516870
  26        9.600999
  27        9.670140
  28       10.064398
  29       10.123572
  30       10.157492
  31       10.613674
  32       10.787126
  33       10.804754
  34       10.886454
  35       11.041606
  36       11.177716
  37       11.342612
  38       11.365474
  39       13.134084
  40       13.255549
 
  0.1666667E+00  0.1666667E+00  0.2500000E+00  0.1157407E-02
   1      -34.558543
   2      -33.925366
   3      -15.614790
   4      -15.383173
   5      -10.636606
   6      -10.616801
   7       -9.185321
   8       -9.149384
   9       -7.285843
  10       -7.151750
  11       -6.622539
  12       -6.368876
  13        2.955067
  14        2.986524
  15        3.022108
  16        3.058836
  17        3.462899
  18        3.504491
  19        4.735273
  20        4.798499
  21        5.161516
  22        5.241403
  23        5.626364
  24        5.688595
  25        9.516870
  26        9.600999
  27        9.670140
  28       10.064398
  29       10.123572
  30       10.157492
  31       10.613674
  32       10.787126
  33       10.804754
  34       10.886454
  35       11.041606
  36       11.177716
  37       11.342612
  38       11.365474
  39       13.134084
  40       13.255549
 
  0.1666667E+00  0.2500000E+00  0.1666667E+00  0.1157407E-02
   1      -34.558547
   2      -33.925365
   3      -15.609838
   4      -15.388566
   5      -10.644541
   6      -10.605128
   7       -9.180106
   8       -9.157008
   9       -7.364947
  10       -7.063107
  11       -6.611814
  12       -6.389797
  13        2.953163
  14        2.988564
  15        3.022035
  16        3.059436
  17        3.460772
  18        3.505692
  19        4.738239
  20        4.797179
  21        5.169593
  22        5.236561
  23        5.613342
  24        5.695551
  25        9.475437
  26        9.633920
  27        9.718192
  28       10.010840
  29       10.091714
  30       10.187898
  31       10.618392
  32       10.763142
  33       10.867922
  34       10.888319
  35       11.031903
  36       11.185274
  37       11.261141
  38       11.420364
  39       13.134669
  40       13.254303
 
 -0.1666667E+00 -0.2500000E+00 -0.1666667E+00  0.1157407E-02
   1      -34.558547
   2      -33.925365
   3      -15.609838
   4      -15.388566
   5      -10.644540
   6      -10.605127
   7       -9.180106
   8       -9.157008
   9       -7.364947
  10       -7.063107
  11       -6.611814
  12       -6.389796
  13        2.953163
  14        2.988564
  15        3.022035
  16        3.059436
  17        3.460772
  18        3.505692
  19        4.738239
  20        4.797179
  21        5.169593
  22        5.236561
  23        5.613342
  24        5.695551
  25        9.475437
  26        9.633920
  27        9.718192
  28       10.010840
  29       10.091714
  30       10.187898
  31       10.618392
  32       10.763142
  33       10.867922
  34       10.888319
  35       11.031903
  36       11.185274
  37       11.261141
  38       11.420364
  39       13.134667
  40       13.254303
 
  0.0000000E+00  0.8333333E-01 -0.1666667E+00  0.1157407E-02
   1      -34.558548
   2      -33.925365
   3      -15.609795
   4      -15.388613
   5      -10.644552
   6      -10.605094
   7       -9.180093
   8       -9.157026
   9       -7.365272
  10       -7.062735
  11       -6.611778
  12       -6.389893
  13        2.953156
  14        2.988560
  15        3.022034
  16        3.059434
  17        3.460777
  18        3.505694
  19        4.738241
  20        4.797182
  21        5.169604
  22        5.236547
  23        5.613335
  24        5.695555
  25        9.475432
  26        9.633937
  27        9.718273
  28       10.010694
  29       10.091734
  30       10.187850
  31       10.618590
  32       10.763208
  33       10.868022
  34       10.888157
  35       11.031872
  36       11.185149
  37       11.261074
  38       11.420466
  39       13.134673
  40       13.254298
 
  0.0000000E+00 -0.8333333E-01  0.1666667E+00  0.1157407E-02
   1      -34.558548
   2      -33.925365
   3      -15.609795
   4      -15.388613
   5      -10.644552
   6      -10.605094
   7       -9.180093
   8       -9.157026
   9       -7.365272
  10       -7.062735
  11       -6.611778
  12       -6.389893
  13        2.953157
  14        2.988560
  15        3.022034
  16        3.059434
  17        3.460777
  18        3.505695
  19        4.738241
  20        4.797182
  21        5.169604
  22        5.236547
  23        5.613335
  24        5.695555
  25        9.475432
  26        9.633937
  27        9.718273
  28       10.010694
  29       10.091734
  30       10.187850
  31       10.618590
  32       10.763208
  33       10.868022
  34       10.888157
  35       11.031872
  36       11.185149
  37       11.261074
  38       11.420466
  39       13.134674
  40       13.254298
 
 -0.1666667E+00  0.8333333E-01  0.0000000E+00  0.1157407E-02
   1      -34.558543
   2      -33.925366
   3      -15.614871
   4      -15.383113
   5      -10.636530
   6      -10.616904
   7       -9.185315
   8       -9.149363
   9       -7.284431
  10       -7.153040
  11       -6.622545
  12       -6.368982
  13        2.955122
  14        2.986614
  15        3.022092
  16        3.058844
  17        3.462867
  18        3.504439
  19        4.735242
  20        4.798493
  21        5.161541
  22        5.241440
  23        5.626356
  24        5.688598
  25        9.517064
  26        9.600242
  27        9.670442
  28       10.064329
  29       10.123549
  30       10.157902
  31       10.613169
  32       10.786720
  33       10.804381
  34       10.887196
  35       11.041377
  36       11.178111
  37       11.343150
  38       11.365258
  39       13.134065
  40       13.255543
 
  0.1666667E+00 -0.8333333E-01  0.0000000E+00  0.1157407E-02
   1      -34.558543
   2      -33.925366
   3      -15.614871
   4      -15.383113
   5      -10.636530
   6      -10.616904
   7       -9.185315
   8       -9.149363
   9       -7.284431
  10       -7.153040
  11       -6.622545
  12       -6.368982
  13        2.955122
  14        2.986614
  15        3.022092
  16        3.058844
  17        3.462867
  18        3.504439
  19        4.735242
  20        4.798493
  21        5.161541
  22        5.241440
  23        5.626356
  24        5.688598
  25        9.517064
  26        9.600242
  27        9.670442
  28       10.064329
  29       10.123549
  30       10.157902
  31       10.613169
  32       10.786720
  33       10.804381
  34       10.887196
  35       11.041377
  36       11.178111
  37       11.343150
  38       11.365258
  39       13.134065
  40       13.255543
 
  0.4166667E+00  0.8333333E-01  0.8333333E-01  0.1157407E-02
   1      -34.521814
   2      -33.886486
   3      -15.848012
   4      -15.632243
   5      -10.960698
   6      -10.893949
   7       -9.618383
   8       -9.583169
   9       -7.422872
  10       -7.167703
  11       -5.811292
  12       -5.606432
  13        3.386405
  14        3.412007
  15        3.449499
  16        3.471153
  17        4.200869
  18        4.242321
  19        4.480429
  20        4.519711
  21        5.166794
  22        5.225813
  23        5.683303
  24        5.756201
  25        9.161893
  26        9.382742
  27        9.624622
  28        9.748570
  29        9.948960
  30       10.095929
  31       10.291776
  32       10.357248
  33       10.727400
  34       10.783367
  35       11.011288
  36       11.149370
  37       11.342386
  38       11.533135
  39       14.039731
  40       14.245500
 