 running on   40 total cores
 distrk:  each k-point on   40 cores,    1 groups
 distr:  one band on    5 cores,    8 groups
 using from now: INCAR     
 vasp.5.3.2 13Sep12 (build Sep  9 2014 11:37:56) complex                        
  
 POSCAR found type information on POSCAR  U  O 
 POSCAR found :  2 types and       3 ions
 LDA part: xc-table for Ceperly-Alder, standard interpolation
 POSCAR, INCAR and KPOINTS ok, starting setup
 FFT: planning ...
 WAVECAR not read
 entering main loop
       N       E                     dE             d eps       ncg     rms          rms(c)
DAV:   1     0.276946480566E+03    0.27695E+03   -0.10250E+04 69136   0.128E+03
DAV:   2     0.513361200854E+01   -0.27181E+03   -0.23376E+03 76184   0.347E+02
DAV:   3    -0.351640668141E+02   -0.40298E+02   -0.37888E+02 88928   0.149E+02
DAV:   4    -0.372706003835E+02   -0.21065E+01   -0.20877E+01103000   0.305E+01
DAV:   5    -0.373861620497E+02   -0.11556E+00   -0.11547E+00111296   0.615E+00    0.110E+01
DAV:   6    -0.351653396198E+02    0.22208E+01   -0.16988E+01 97912   0.299E+01    0.691E+00
DAV:   7    -0.346111508181E+02    0.55419E+00   -0.27505E+00102240   0.243E+01    0.236E+00
DAV:   8    -0.345541320820E+02    0.57019E-01   -0.26790E-01 91016   0.441E+00    0.119E+00
DAV:   9    -0.345429149746E+02    0.11217E-01   -0.10773E-01100544   0.228E+00    0.591E-01
DAV:  10    -0.345399933256E+02    0.29216E-02   -0.16623E-02 98616   0.130E+00    0.226E-01
DAV:  11    -0.345398416371E+02    0.15169E-03   -0.51407E-03 95984   0.489E-01    0.953E-02
DAV:  12    -0.345397645530E+02    0.77084E-04   -0.61249E-04101256   0.257E-01    0.392E-02
DAV:  13    -0.345397640035E+02    0.54946E-06   -0.50771E-05 88408   0.569E-02
   1 F= -.34539764E+02 E0= -.34539764E+02  d E =0.000000E+00  mag=     0.0088     0.0067     1.2963
 writing wavefunctions
sjob
