   12   12    1    1
  0.1362399E+02  0.5468000E-09  0.5468000E-09  0.5468000E-09  0.5000000E-15
  1.000000000000000E-004
  CAR 
 LIO                                     
  104  216  128
 
  0.8333333E-01  0.8333333E-01  0.8333333E-01  0.4629630E-02
   1      -34.450342
   2      -34.446560
   3      -34.394952
   4      -34.393220
   5      -34.068731
   6      -34.066266
   7      -34.025619
   8      -34.021759
   9      -16.078955
  10      -16.078023
  11      -15.992812
  12      -15.990827
  13      -15.857640
  14      -15.856994
  15      -15.343831
  16      -15.340912
  17      -11.331908
  18      -11.329599
  19      -11.312639
  20      -11.308411
  21      -11.280251
  22      -11.277251
  23      -10.345992
  24      -10.345303
  25       -9.595910
  26       -9.592429
  27       -9.591054
  28       -9.583071
  29       -9.582250
  30       -9.578470
  31       -8.928923
  32       -8.928321
  33       -7.893612
  34       -7.891303
  35       -7.827258
  36       -7.825885
  37       -7.756563
  38       -7.752764
  39       -7.195174
  40       -7.178123
  41       -7.049556
  42       -7.037555
  43       -4.886633
  44       -4.885338
  45       -4.883276
  46       -4.881159
  47       -4.873013
  48       -4.871828
  49        2.072814
  50        2.073070
  51        2.077518
  52        2.077892
  53        2.082245
  54        2.082594
  55        2.694621
  56        2.695058
  57        2.709648
  58        2.709880
  59        2.822158
  60        2.822680
  61        4.413007
  62        4.413467
  63        4.416099
  64        4.416477
  65        4.420578
  66        4.420939
  67        5.139933
  68        5.141744
  69        5.144486
  70        5.150262
  71        5.154148
  72        5.157070
  73        5.239928
  74        5.240605
  75        5.266750
  76        5.267142
  77        5.292056
  78        5.292924
  79        5.317942
  80        5.318884
  81        5.380535
  82        5.382129
  83        5.430057
  84        5.432009
  85        5.570105
  86        5.570484
  87        5.573192
  88        5.573366
  89        5.577151
  90        5.577578
  91        5.757364
  92        5.757485
  93        5.763350
  94        5.764795
  95        5.769478
  96        5.770789
  97        9.100276
  98        9.108251
  99        9.134731
 100        9.148433
 101        9.207391
 102        9.216258
 103        9.547735
 104        9.549461
 105        9.561381
 106        9.567842
 107        9.585994
 108        9.586917
 109        9.730984
 110        9.744893
 111        9.809219
 112        9.818550
 113        9.864287
 114        9.876413
 115        9.881400
 116        9.894296
 117       10.001990
 118       10.010220
 119       10.021504
 120       10.034778
 121       10.194669
 122       10.200956
 123       10.217813
 124       10.231054
 125       10.256619
 126       10.264970
 127       10.671088
 128       10.681252
 
  0.2500000E+00  0.8333333E-01  0.8333333E-01  0.4629630E-02
   1      -34.444083
   2      -34.440565
   3      -34.399178
   4      -34.397541
   5      -34.066806
   6      -34.063931
   7      -34.029982
   8      -34.025631
   9      -16.053617
  10      -16.052600
  11      -15.965846
  12      -15.962780
  13      -15.817823
  14      -15.816807
  15      -15.425179
  16      -15.422317
  17      -11.329212
  18      -11.328347
  19      -11.313829
  20      -11.312687
  21      -11.203009
  22      -11.202063
  23      -10.518301
  24      -10.517332
  25       -9.850864
  26       -9.849176
  27       -9.813391
  28       -9.811760
  29       -9.509679
  30       -9.508822
  31       -9.031191
  32       -9.030572
  33       -7.751916
  34       -7.750131
  35       -7.395756
  36       -7.392235
  37       -7.340129
  38       -7.330612
  39       -7.256709
  40       -7.244334
  41       -6.735117
  42       -6.731514
  43       -5.171435
  44       -5.166901
  45       -5.119418
  46       -5.114162
  47       -5.112004
  48       -5.108662
  49        2.340628
  50        2.341218
  51        2.346581
  52        2.347279
  53        2.450665
  54        2.451351
  55        2.843841
  56        2.844032
  57        2.920246
  58        2.920501
  59        3.147606
  60        3.148294
  61        4.049266
  62        4.049652
  63        4.243195
  64        4.243688
  65        4.252831
  66        4.253191
  67        4.553476
  68        4.554101
  69        4.788571
  70        4.789942
  71        4.926307
  72        4.927059
  73        5.039664
  74        5.040778
  75        5.050260
  76        5.050550
  77        5.228454
  78        5.228856
  79        5.255935
  80        5.257070
  81        5.431037
  82        5.432588
  83        5.436880
  84        5.439715
  85        5.444042
  86        5.446584
  87        5.562633
  88        5.563449
  89        5.710523
  90        5.710661
  91        5.833755
  92        5.834295
  93        5.843343
  94        5.843922
  95        5.995758
  96        5.996095
  97        9.138909
  98        9.149951
  99        9.200492
 100        9.220706
 101        9.269448
 102        9.290034
 103        9.570894
 104        9.579794
 105        9.602894
 106        9.615239
 107        9.625730
 108        9.634793
 109        9.709711
 110        9.739651
 111        9.772684
 112        9.791801
 113        9.825208
 114        9.830158
 115        9.905760
 116        9.918730
 117        9.927865
 118        9.949526
 119       10.018572
 120       10.037128
 121       10.162754
 122       10.170925
 123       10.214281
 124       10.217926
 125       10.284583
 126       10.288337
 127       10.536505
 128       10.540500
 
  0.4166667E+00  0.8333333E-01  0.8333333E-01  0.4629630E-02
   1      -34.436020
   2      -34.432931
   3      -34.405016
   4      -34.403670
   5      -34.064545
   6      -34.060683
   7      -34.035246
   8      -34.029874
   9      -16.032652
  10      -16.031958
  11      -15.936287
  12      -15.932949
  13      -15.731737
  14      -15.730080
  15      -15.550307
  16      -15.547640
  17      -11.337509
  18      -11.336784
  19      -11.329596
  20      -11.329090
  21      -11.018462
  22      -11.017328
  23      -10.770910
  24      -10.770125
  25      -10.046757
  26      -10.044738
  27       -9.987299
  28       -9.984771
  29       -9.369199
  30       -9.368464
  31       -9.195104
  32       -9.194494
  33       -7.604737
  34       -7.601954
  35       -7.431620
  36       -7.427348
  37       -6.883927
  38       -6.879080
  39       -6.812934
  40       -6.809969
  41       -6.227393
  42       -6.226321
  43       -5.656520
  44       -5.650743
  45       -5.456398
  46       -5.452287
  47       -5.440861
  48       -5.438899
  49        2.712562
  50        2.713158
  51        2.718125
  52        2.718845
  53        3.091197
  54        3.091825
  55        3.132926
  56        3.133178
  57        3.343588
  58        3.343815
  59        3.609934
  60        3.610351
  61        3.677005
  62        3.677670
  63        3.922432
  64        3.923157
  65        3.936214
  66        3.936896
  67        3.951486
  68        3.952313
  69        4.002877
  70        4.003746
  71        4.330602
  72        4.331236
  73        4.974806
  74        4.975457
  75        4.989512
  76        4.989957
  77        5.163077
  78        5.163562
  79        5.183234
  80        5.184213
  81        5.327571
  82        5.328589
  83        5.335327
  84        5.336230
  85        5.600902
  86        5.601163
  87        5.722217
  88        5.722509
  89        5.796647
  90        5.797008
  91        5.892479
  92        5.893728
  93        5.902791
  94        5.903961
  95        5.989978
  96        5.990415
  97        9.134040
  98        9.139819
  99        9.247133
 100        9.251649
 101        9.397102
 102        9.406616
 103        9.548840
 104        9.568989
 105        9.599634
 106        9.623674
 107        9.657487
 108        9.686396
 109        9.731517
 110        9.744726
 111        9.766803
 112        9.774202
 113        9.837861
 114        9.854840
 115        9.872410
 116        9.916989
 117        9.950034
 118        9.970624
 119       10.020603
 120       10.049983
 121       10.122511
 122       10.142050
 123       10.172320
 124       10.180146
 125       10.395757
 126       10.411811
 127       10.448842
 128       10.480064
 
 -0.4166667E+00  0.8333333E-01  0.8333333E-01  0.4629630E-02
   1      -34.436017
   2      -34.432935
   3      -34.405011
   4      -34.403675
   5      -34.064543
   6      -34.060686
   7      -34.035243
   8      -34.029877
   9      -16.032557
  10      -16.032037
  11      -15.935907
  12      -15.933337
  13      -15.732182
  14      -15.729677
  15      -15.550625
  16      -15.547289
  17      -11.337693
  18      -11.336486
  19      -11.329642
  20      -11.329138
  21      -11.018264
  22      -11.017512
  23      -10.771085
  24      -10.769957
  25      -10.046472
  26      -10.045014
  27       -9.987425
  28       -9.984689
  29       -9.369163
  30       -9.368492
  31       -9.195103
  32       -9.194504
  33       -7.604690
  34       -7.601987
  35       -7.431596
  36       -7.427424
  37       -6.883316
  38       -6.879562
  39       -6.812966
  40       -6.810012
  41       -6.230507
  42       -6.223198
  43       -5.654903
  44       -5.652383
  45       -5.455434
  46       -5.452836
  47       -5.441186
  48       -5.438977
  49        2.712554
  50        2.713161
  51        2.718070
  52        2.718906
  53        3.091063
  54        3.091963
  55        3.132935
  56        3.133150
  57        3.343603
  58        3.343778
  59        3.609899
  60        3.610401
  61        3.677038
  62        3.677649
  63        3.922524
  64        3.923083
  65        3.936222
  66        3.936893
  67        3.951295
  68        3.952511
  69        4.002835
  70        4.003782
  71        4.330446
  72        4.331397
  73        4.974873
  74        4.975356
  75        4.989458
  76        4.990044
  77        5.163047
  78        5.163592
  79        5.183217
  80        5.184216
  81        5.327618
  82        5.328532
  83        5.335284
  84        5.336263
  85        5.600849
  86        5.601221
  87        5.722194
  88        5.722526
  89        5.796489
  90        5.797172
  91        5.892495
  92        5.893719
  93        5.902769
  94        5.903986
  95        5.990128
  96        5.990260
  97        9.135694
  98        9.138186
  99        9.245121
 100        9.253816
 101        9.396890
 102        9.406415
 103        9.550534
 104        9.567925
 105        9.597768
 106        9.624080
 107        9.658961
 108        9.685257
 109        9.731305
 110        9.747355
 111        9.766415
 112        9.773350
 113        9.835268
 114        9.853598
 115        9.874725
 116        9.917963
 117        9.948980
 118        9.972157
 119       10.023940
 120       10.046812
 121       10.122466
 122       10.141235
 123       10.172293
 124       10.181004
 125       10.397913
 126       10.410218
 127       10.444655
 128       10.486737
 
 -0.2500000E+00  0.8333333E-01  0.8333333E-01  0.4629630E-02
   1      -34.444080
   2      -34.440569
   3      -34.399173
   4      -34.397545
   5      -34.066802
   6      -34.063936
   7      -34.029977
   8      -34.025635
   9      -16.053257
  10      -16.052927
  11      -15.964982
  12      -15.963667
  13      -15.818256
  14      -15.816419
  15      -15.425288
  16      -15.422174
  17      -11.329097
  18      -11.328433
  19      -11.314404
  20      -11.312098
  21      -11.202932
  22      -11.202134
  23      -10.518246
  24      -10.517390
  25       -9.850266
  26       -9.849760
  27       -9.813623
  28       -9.811619
  29       -9.509637
  30       -9.508857
  31       -9.031137
  32       -9.030634
  33       -7.751894
  34       -7.750181
  35       -7.395652
  36       -7.392180
  37       -7.339701
  38       -7.331314
  39       -7.256504
  40       -7.244360
  41       -6.738852
  42       -6.727767
  43       -5.170751
  44       -5.167596
  45       -5.118364
  46       -5.114827
  47       -5.112438
  48       -5.108622
  49        2.340609
  50        2.341232
  51        2.346491
  52        2.347379
  53        2.450549
  54        2.451470
  55        2.843798
  56        2.844043
  57        2.920280
  58        2.920441
  59        3.147652
  60        3.148286
  61        4.049250
  62        4.049679
  63        4.243122
  64        4.243767
  65        4.252403
  66        4.253647
  67        4.553520
  68        4.554066
  69        4.788873
  70        4.789637
  71        4.926173
  72        4.927208
  73        5.039881
  74        5.040501
  75        5.050003
  76        5.050854
  77        5.228302
  78        5.229002
  79        5.255985
  80        5.257024
  81        5.431024
  82        5.432592
  83        5.436437
  84        5.440058
  85        5.444499
  86        5.446163
  87        5.562660
  88        5.563432
  89        5.710417
  90        5.710759
  91        5.833795
  92        5.834264
  93        5.843443
  94        5.843851
  95        5.995825
  96        5.996018
  97        9.141467
  98        9.147482
  99        9.199838
 100        9.221138
 101        9.270674
 102        9.288744
 103        9.571199
 104        9.578590
 105        9.604588
 106        9.614282
 107        9.625582
 108        9.636373
 109        9.706658
 110        9.739945
 111        9.770485
 112        9.795504
 113        9.826226
 114        9.828348
 115        9.906675
 116        9.920139
 117        9.927729
 118        9.947863
 119       10.022080
 120       10.035693
 121       10.162688
 122       10.169165
 123       10.211962
 124       10.221401
 125       10.284820
 126       10.287154
 127       10.531405
 128       10.544528
 
 -0.8333333E-01  0.8333333E-01  0.8333333E-01  0.4629630E-02
   1      -34.450341
   2      -34.446561
   3      -34.394950
   4      -34.393221
   5      -34.068729
   6      -34.066267
   7      -34.025617
   8      -34.021761
   9      -16.078740
  10      -16.078222
  11      -15.992363
  12      -15.991289
  13      -15.857965
  14      -15.856685
  15      -15.343857
  16      -15.340874
  17      -11.331456
  18      -11.330080
  19      -11.313204
  20      -11.307774
  21      -11.279622
  22      -11.277900
  23      -10.345765
  24      -10.345530
  25       -9.596023
  26       -9.592265
  27       -9.591091
  28       -9.583032
  29       -9.582350
  30       -9.578466
  31       -8.928889
  32       -8.928358
  33       -7.893168
  34       -7.891769
  35       -7.828342
  36       -7.824833
  37       -7.755298
  38       -7.753945
  39       -7.193540
  40       -7.179873
  41       -7.051427
  42       -7.035569
  43       -4.886032
  44       -4.885090
  45       -4.883689
  46       -4.881652
  47       -4.873062
  48       -4.871728
  49        2.072841
  50        2.073038
  51        2.077458
  52        2.077948
  53        2.082257
  54        2.082595
  55        2.694544
  56        2.695104
  57        2.709529
  58        2.709980
  59        2.822161
  60        2.822720
  61        4.413101
  62        4.413395
  63        4.415919
  64        4.416620
  65        4.420532
  66        4.421022
  67        5.139603
  68        5.142006
  69        5.144922
  70        5.149894
  71        5.153777
  72        5.157460
  73        5.240040
  74        5.240489
  75        5.266742
  76        5.267141
  77        5.291726
  78        5.293253
  79        5.318225
  80        5.318606
  81        5.380337
  82        5.382315
  83        5.429630
  84        5.432447
  85        5.570215
  86        5.570437
  87        5.573203
  88        5.573231
  89        5.577250
  90        5.577472
  91        5.757371
  92        5.757480
  93        5.763345
  94        5.764833
  95        5.769548
  96        5.770719
  97        9.100866
  98        9.107993
  99        9.134634
 100        9.148003
 101        9.207566
 102        9.216249
 103        9.546808
 104        9.549648
 105        9.560732
 106        9.568815
 107        9.586588
 108        9.586979
 109        9.728522
 110        9.746668
 111        9.808213
 112        9.820106
 113        9.864675
 114        9.875857
 115        9.880091
 116        9.895834
 117        9.998664
 118       10.013170
 119       10.023248
 120       10.034122
 121       10.192887
 122       10.201918
 123       10.215502
 124       10.233423
 125       10.259582
 126       10.261909
 127       10.672870
 128       10.676731
 
  0.8333333E-01  0.2500000E+00  0.8333333E-01  0.4629630E-02
   1      -34.444254
   2      -34.440836
   3      -34.398937
   4      -34.397215
   5      -34.067215
   6      -34.064221
   7      -34.029579
   8      -34.025458
   9      -16.054286
  10      -16.053454
  11      -15.963831
  12      -15.961557
  13      -15.818797
  14      -15.817833
  15      -15.424962
  16      -15.422261
  17      -11.329553
  18      -11.329298
  19      -11.312842
  20      -11.311499
  21      -11.203759
  22      -11.201912
  23      -10.518516
  24      -10.517147
  25       -9.852061
  26       -9.850698
  27       -9.812235
  28       -9.810973
  29       -9.509512
  30       -9.508865
  31       -9.031167
  32       -9.030581
  33       -7.752904
  34       -7.747479
  35       -7.397695
  36       -7.394145
  37       -7.336739
  38       -7.329984
  39       -7.258465
  40       -7.243111
  41       -6.737368
  42       -6.730341
  43       -5.171416
  44       -5.167426
  45       -5.119050
  46       -5.115282
  47       -5.111078
  48       -5.108138
  49        2.340465
  50        2.340904
  51        2.346861
  52        2.347295
  53        2.450630
  54        2.451471
  55        2.843623
  56        2.844144
  57        2.920112
  58        2.920630
  59        3.147738
  60        3.148326
  61        4.049013
  62        4.049954
  63        4.242866
  64        4.243224
  65        4.253151
  66        4.253359
  67        4.553311
  68        4.554386
  69        4.788530
  70        4.789786
  71        4.926425
  72        4.927247
  73        5.039400
  74        5.040398
  75        5.050513
  76        5.050838
  77        5.227621
  78        5.227830
  79        5.256889
  80        5.257740
  81        5.431249
  82        5.432215
  83        5.436468
  84        5.439807
  85        5.444614
  86        5.446695
  87        5.562440
  88        5.563751
  89        5.710363
  90        5.710917
  91        5.833442
  92        5.834039
  93        5.843742
  94        5.844248
  95        5.995637
  96        5.996335
  97        9.137379
  98        9.147741
  99        9.202446
 100        9.222812
 101        9.268897
 102        9.288217
 103        9.568081
 104        9.578759
 105        9.605609
 106        9.615402
 107        9.624952
 108        9.635404
 109        9.711157
 110        9.739429
 111        9.772153
 112        9.795595
 113        9.828515
 114        9.832175
 115        9.902583
 116        9.915607
 117        9.930035
 118        9.948720
 119       10.018246
 120       10.034379
 121       10.163585
 122       10.170707
 123       10.215699
 124       10.221204
 125       10.282704
 126       10.287899
 127       10.532501
 128       10.539870
 
  0.2500000E+00  0.2500000E+00  0.8333333E-01  0.4629630E-02
   1      -34.438852
   2      -34.435647
   3      -34.402760
   4      -34.401058
   5      -34.064794
   6      -34.061488
   7      -34.033765
   8      -34.029425
   9      -16.029442
  10      -16.028031
  11      -15.945595
  12      -15.941794
  13      -15.795732
  14      -15.794675
  15      -15.493231
  16      -15.490671
  17      -11.318780
  18      -11.316726
  19      -11.236394
  20      -11.232887
  21      -11.208081
  22      -11.204805
  23      -10.635613
  24      -10.633491
  25       -9.918290
  26       -9.914657
  27       -9.751088
  28       -9.749192
  29       -9.737336
  30       -9.735138
  31       -9.175630
  32       -9.174775
  33       -7.377228
  34       -7.366666
  35       -7.310632
  36       -7.295738
  37       -7.235431
  38       -7.223007
  39       -7.088682
  40       -7.083466
  41       -6.542304
  42       -6.533527
  43       -5.360890
  44       -5.355396
  45       -5.343112
  46       -5.335384
  47       -5.302372
  48       -5.298454
  49        2.607369
  50        2.608164
  51        2.685396
  52        2.685606
  53        2.691122
  54        2.691441
  55        2.965052
  56        2.965639
  57        3.031633
  58        3.032296
  59        3.474588
  60        3.475361
  61        3.980243
  62        3.980979
  63        3.983430
  64        3.984011
  65        4.159057
  66        4.159704
  67        4.482270
  68        4.482571
  69        4.490931
  70        4.491141
  71        4.759320
  72        4.760779
  73        4.795387
  74        4.796010
  75        4.943718
  76        4.944139
  77        4.964785
  78        4.965081
  79        5.134253
  80        5.135398
  81        5.193872
  82        5.194762
  83        5.286812
  84        5.288273
  85        5.539444
  86        5.539954
  87        5.544753
  88        5.545359
  89        5.644967
  90        5.646472
  91        6.002197
  92        6.002963
  93        6.021112
  94        6.021777
  95        6.042939
  96        6.043235
  97        9.156978
  98        9.175937
  99        9.222117
 100        9.261749
 101        9.285403
 102        9.324128
 103        9.562638
 104        9.589916
 105        9.620060
 106        9.622217
 107        9.649485
 108        9.666984
 109        9.682912
 110        9.731858
 111        9.772398
 112        9.787954
 113        9.831346
 114        9.851261
 115        9.874313
 116        9.894764
 117        9.905642
 118        9.932691
 119       10.001163
 120       10.024537
 121       10.152688
 122       10.165405
 123       10.217227
 124       10.241436
 125       10.256004
 126       10.270617
 127       10.500260
 128       10.511161
 
  0.4166667E+00  0.2500000E+00  0.8333333E-01  0.4629630E-02
   1      -34.431662
   2      -34.428796
   3      -34.408246
   4      -34.406667
   5      -34.061704
   6      -34.057511
   7      -34.039180
   8      -34.034084
   9      -16.007003
  10      -16.005328
  11      -15.924097
  12      -15.919720
  13      -15.739792
  14      -15.737473
  15      -15.594938
  16      -15.592611
  17      -11.297109
  18      -11.294455
  19      -11.255661
  20      -11.253482
  21      -11.045940
  22      -11.043575
  23      -10.830100
  24      -10.828061
  25       -9.992848
  26       -9.989171
  27       -9.927758
  28       -9.925141
  29       -9.586273
  30       -9.584888
  31       -9.383249
  32       -9.381942
  33       -7.292092
  34       -7.286337
  35       -7.240055
  36       -7.231082
  37       -6.887087
  38       -6.874755
  39       -6.785570
  40       -6.781833
  41       -6.180626
  42       -6.175186
  43       -5.740620
  44       -5.731963
  45       -5.597397
  46       -5.586477
  47       -5.564207
  48       -5.559892
  49        2.984242
  50        2.985074
  51        3.022408
  52        3.023182
  53        3.213762
  54        3.214067
  55        3.254940
  56        3.255489
  57        3.352384
  58        3.352700
  59        3.650987
  60        3.651658
  61        3.841761
  62        3.842708
  63        3.895330
  64        3.896080
  65        3.916647
  66        3.917156
  67        3.918451
  68        3.918841
  69        4.179084
  70        4.179809
  71        4.456954
  72        4.457575
  73        4.485403
  74        4.486283
  75        4.569394
  76        4.570007
  77        4.986550
  78        4.987170
  79        5.014840
  80        5.016188
  81        5.219393
  82        5.220753
  83        5.286108
  84        5.286973
  85        5.316417
  86        5.317413
  87        5.495315
  88        5.496007
  89        5.847697
  90        5.848955
  91        6.015253
  92        6.016136
  93        6.101718
  94        6.102214
  95        6.136205
  96        6.136601
  97        9.153553
  98        9.161871
  99        9.247653
 100        9.256521
 101        9.372406
 102        9.388854
 103        9.504158
 104        9.524071
 105        9.598993
 106        9.619011
 107        9.631663
 108        9.681181
 109        9.722169
 110        9.741529
 111        9.786294
 112        9.807847
 113        9.835273
 114        9.860562
 115        9.871168
 116        9.896370
 117        9.928746
 118        9.986798
 119       10.016903
 120       10.032073
 121       10.121292
 122       10.149238
 123       10.191403
 124       10.204851
 125       10.331294
 126       10.340914
 127       10.431741
 128       10.453373
 
 -0.4166667E+00  0.2500000E+00  0.8333333E-01  0.4629630E-02
   1      -34.431655
   2      -34.428805
   3      -34.408234
   4      -34.406677
   5      -34.061698
   6      -34.057520
   7      -34.039171
   8      -34.034090
   9      -16.006937
  10      -16.005364
  11      -15.923749
  12      -15.920110
  13      -15.740775
  14      -15.736477
  15      -15.595663
  16      -15.591889
  17      -11.297188
  18      -11.294265
  19      -11.255794
  20      -11.253444
  21      -11.046127
  22      -11.043373
  23      -10.829952
  24      -10.828219
  25       -9.992026
  26       -9.989936
  27       -9.928205
  28       -9.924782
  29       -9.586441
  30       -9.584737
  31       -9.383006
  32       -9.382173
  33       -7.291635
  34       -7.286538
  35       -7.240882
  36       -7.230611
  37       -6.886845
  38       -6.874688
  39       -6.786875
  40       -6.780698
  41       -6.183285
  42       -6.172558
  43       -5.738336
  44       -5.734319
  45       -5.596436
  46       -5.586882
  47       -5.564297
  48       -5.560281
  49        2.984198
  50        2.985110
  51        3.022326
  52        3.023272
  53        3.213775
  54        3.214046
  55        3.254803
  56        3.255630
  57        3.352379
  58        3.352685
  59        3.650974
  60        3.651681
  61        3.841791
  62        3.842688
  63        3.895380
  64        3.896043
  65        3.916614
  66        3.917403
  67        3.917802
  68        3.919276
  69        4.178919
  70        4.179974
  71        4.456767
  72        4.457728
  73        4.485234
  74        4.486451
  75        4.569414
  76        4.570025
  77        4.986419
  78        4.987283
  79        5.015149
  80        5.015895
  81        5.219597
  82        5.220544
  83        5.285957
  84        5.287109
  85        5.316341
  86        5.317521
  87        5.495085
  88        5.496215
  89        5.847808
  90        5.848834
  91        6.015223
  92        6.016174
  93        6.101798
  94        6.102131
  95        6.136184
  96        6.136621
  97        9.156844
  98        9.158694
  99        9.244721
 100        9.259408
 101        9.374090
 102        9.386681
 103        9.507078
 104        9.521313
 105        9.598821
 106        9.617829
 107        9.632597
 108        9.681238
 109        9.721444
 110        9.743329
 111        9.786936
 112        9.806943
 113        9.833978
 114        9.862819
 115        9.871225
 116        9.895165
 117        9.926747
 118        9.989608
 119       10.019596
 120       10.029516
 121       10.120893
 122       10.149945
 123       10.189611
 124       10.205887
 125       10.331977
 126       10.339033
 127       10.434814
 128       10.461536
 
 -0.2500000E+00  0.2500000E+00  0.8333333E-01  0.4629630E-02
   1      -34.438845
   2      -34.435654
   3      -34.402751
   4      -34.401066
   5      -34.064787
   6      -34.061497
   7      -34.033755
   8      -34.029432
   9      -16.029253
  10      -16.028161
  11      -15.944702
  12      -15.942776
  13      -15.796529
  14      -15.793873
  15      -15.493485
  16      -15.490395
  17      -11.319083
  18      -11.316329
  19      -11.236367
  20      -11.232988
  21      -11.207934
  22      -11.204925
  23      -10.635266
  24      -10.633839
  25       -9.917403
  26       -9.915533
  27       -9.751350
  28       -9.748861
  29       -9.737116
  30       -9.735517
  31       -9.175322
  32       -9.175080
  33       -7.376736
  34       -7.366933
  35       -7.311327
  36       -7.295541
  37       -7.234867
  38       -7.223359
  39       -7.089424
  40       -7.082600
  41       -6.544595
  42       -6.531248
  43       -5.360586
  44       -5.355590
  45       -5.342986
  46       -5.335247
  47       -5.302565
  48       -5.298651
  49        2.607272
  50        2.608257
  51        2.685444
  52        2.685535
  53        2.691245
  54        2.691353
  55        2.965093
  56        2.965609
  57        3.031682
  58        3.032197
  59        3.474578
  60        3.475394
  61        3.980400
  62        3.980789
  63        3.983450
  64        3.984034
  65        4.158601
  66        4.160164
  67        4.482237
  68        4.482604
  69        4.490740
  70        4.491318
  71        4.759623
  72        4.760475
  73        4.795467
  74        4.795972
  75        4.943802
  76        4.944094
  77        4.964771
  78        4.965049
  79        5.134574
  80        5.135081
  81        5.193636
  82        5.195009
  83        5.287130
  84        5.287974
  85        5.539501
  86        5.539838
  87        5.544787
  88        5.545326
  89        5.645063
  90        5.646368
  91        6.002377
  92        6.002818
  93        6.021013
  94        6.021855
  95        6.042925
  96        6.043230
  97        9.160653
  98        9.172731
  99        9.219968
 100        9.262001
 101        9.288272
 102        9.322288
 103        9.564093
 104        9.589433
 105        9.618671
 106        9.620898