Automatically generated mesh
     216
Reciprocal lattice
    0.08333333333333    0.08333333333333    0.08333333333333             1
    0.25000000000000    0.08333333333333    0.08333333333333             1
    0.41666666666667    0.08333333333333    0.08333333333333             1
   -0.41666666666667    0.08333333333333    0.08333333333333             1
   -0.25000000000000    0.08333333333333    0.08333333333333             1
   -0.08333333333333    0.08333333333333    0.08333333333333             1
    0.08333333333333    0.25000000000000    0.08333333333333             1
    0.25000000000000    0.25000000000000    0.08333333333333             1
    0.41666666666667    0.25000000000000    0.08333333333333             1
   -0.41666666666667    0.25000000000000    0.08333333333333             1
   -0.25000000000000    0.25000000000000    0.08333333333333             1
   -0.08333333333333    0.25000000000000    0.08333333333333             1
    0.08333333333333    0.41666666666667    0.08333333333333             1
    0.25000000000000    0.41666666666667    0.08333333333333             1
    0.41666666666667    0.41666666666667    0.08333333333333             1
   -0.41666666666667    0.41666666666667    0.08333333333333             1
   -0.25000000000000    0.41666666666667    0.08333333333333             1
   -0.08333333333333    0.41666666666667    0.08333333333333             1
    0.08333333333333   -0.41666666666667    0.08333333333333             1
    0.25000000000000   -0.41666666666667    0.08333333333333             1
    0.41666666666667   -0.41666666666667    0.08333333333333             1
   -0.41666666666667   -0.41666666666667    0.08333333333333             1
   -0.25000000000000   -0.41666666666667    0.08333333333333             1
   -0.08333333333333   -0.41666666666667    0.08333333333333             1
    0.08333333333333   -0.25000000000000    0.08333333333333             1
    0.25000000000000   -0.25000000000000    0.08333333333333             1
    0.41666666666667   -0.25000000000000    0.08333333333333             1
   -0.41666666666667   -0.25000000000000    0.08333333333333             1
   -0.25000000000000   -0.25000000000000    0.08333333333333             1
   -0.08333333333333   -0.25000000000000    0.08333333333333             1
    0.08333333333333   -0.08333333333333    0.08333333333333             1
    0.25000000000000   -0.08333333333333    0.08333333333333             1
    0.41666666666667   -0.08333333333333    0.08333333333333             1
   -0.41666666666667   -0.08333333333333    0.08333333333333             1
   -0.25000000000000   -0.08333333333333    0.08333333333333             1
   -0.08333333333333   -0.08333333333333    0.08333333333333             1
    0.08333333333333    0.08333333333333    0.25000000000000             1
    0.25000000000000    0.08333333333333    0.25000000000000             1
    0.41666666666667    0.08333333333333    0.25000000000000             1
   -0.41666666666667    0.08333333333333    0.25000000000000             1
   -0.25000000000000    0.08333333333333    0.25000000000000             1
   -0.08333333333333    0.08333333333333    0.25000000000000             1
    0.08333333333333    0.25000000000000    0.25000000000000             1
    0.25000000000000    0.25000000000000    0.25000000000000             1
    0.41666666666667    0.25000000000000    0.25000000000000             1
   -0.41666666666667    0.25000000000000    0.25000000000000             1
   -0.25000000000000    0.25000000000000    0.25000000000000             1
   -0.08333333333333    0.25000000000000    0.25000000000000             1
    0.08333333333333    0.41666666666667    0.25000000000000             1
    0.25000000000000    0.41666666666667    0.25000000000000             1
    0.41666666666667    0.41666666666667    0.25000000000000             1
   -0.41666666666667    0.41666666666667    0.25000000000000             1
   -0.25000000000000    0.41666666666667    0.25000000000000             1
   -0.08333333333333    0.41666666666667    0.25000000000000             1
    0.08333333333333   -0.41666666666667    0.25000000000000             1
    0.25000000000000   -0.41666666666667    0.25000000000000             1
    0.41666666666667   -0.41666666666667    0.25000000000000             1
   -0.41666666666667   -0.41666666666667    0.25000000000000             1
   -0.25000000000000   -0.41666666666667    0.25000000000000             1
   -0.08333333333333   -0.41666666666667    0.25000000000000             1
    0.08333333333333   -0.25000000000000    0.25000000000000             1
    0.25000000000000   -0.25000000000000    0.25000000000000             1
    0.41666666666667   -0.25000000000000    0.25000000000000             1
   -0.41666666666667   -0.25000000000000    0.25000000000000             1
   -0.25000000000000   -0.25000000000000    0.25000000000000             1
   -0.08333333333333   -0.25000000000000    0.25000000000000             1
    0.08333333333333   -0.08333333333333    0.25000000000000             1
    0.25000000000000   -0.08333333333333    0.25000000000000             1
    0.41666666666667   -0.08333333333333    0.25000000000000             1
   -0.41666666666667   -0.08333333333333    0.25000000000000             1
   -0.25000000000000   -0.08333333333333    0.25000000000000             1
   -0.08333333333333   -0.08333333333333    0.25000000000000             1
    0.08333333333333    0.08333333333333    0.41666666666667             1
    0.25000000000000    0.08333333333333    0.41666666666667             1
    0.41666666666667    0.08333333333333    0.41666666666667             1
   -0.41666666666667    0.08333333333333    0.41666666666667             1
   -0.25000000000000    0.08333333333333    0.41666666666667             1
   -0.08333333333333    0.08333333333333    0.41666666666667             1
    0.08333333333333    0.25000000000000    0.41666666666667             1
    0.25000000000000    0.25000000000000    0.41666666666667             1
    0.41666666666667    0.25000000000000    0.41666666666667             1
   -0.41666666666667    0.25000000000000    0.41666666666667             1
   -0.25000000000000    0.25000000000000    0.41666666666667             1
   -0.08333333333333    0.25000000000000    0.41666666666667             1
    0.08333333333333    0.41666666666667    0.41666666666667             1
    0.25000000000000    0.41666666666667    0.41666666666667             1
    0.41666666666667    0.41666666666667    0.41666666666667             1
   -0.41666666666667    0.41666666666667    0.41666666666667             1
   -0.25000000000000    0.41666666666667    0.41666666666667             1
   -0.08333333333333    0.41666666666667    0.41666666666667             1
    0.08333333333333   -0.41666666666667    0.41666666666667             1
    0.25000000000000   -0.41666666666667    0.41666666666667             1
    0.41666666666667   -0.41666666666667    0.41666666666667             1
   -0.41666666666667   -0.41666666666667    0.41666666666667             1
   -0.25000000000000   -0.41666666666667    0.41666666666667             1
   -0.08333333333333   -0.41666666666667    0.41666666666667             1
    0.08333333333333   -0.25000000000000    0.41666666666667             1
    0.25000000000000   -0.25000000000000    0.41666666666667             1
    0.41666666666667   -0.25000000000000    0.41666666666667             1
   -0.41666666666667   -0.25000000000000    0.41666666666667             1
   -0.25000000000000   -0.25000000000000    0.41666666666667             1
   -0.08333333333333   -0.25000000000000    0.41666666666667             1
    0.08333333333333   -0.08333333333333    0.41666666666667             1
    0.25000000000000   -0.08333333333333    0.41666666666667             1
    0.41666666666667   -0.08333333333333    0.41666666666667             1
   -0.41666666666667   -0.08333333333333    0.41666666666667             1
   -0.25000000000000   -0.08333333333333    0.41666666666667             1
   -0.08333333333333   -0.08333333333333    0.41666666666667             1
    0.08333333333333    0.08333333333333   -0.41666666666667             1
    0.25000000000000    0.08333333333333   -0.41666666666667             1
    0.41666666666667    0.08333333333333   -0.41666666666667             1
   -0.41666666666667    0.08333333333333   -0.41666666666667             1
   -0.25000000000000    0.08333333333333   -0.41666666666667             1
   -0.08333333333333    0.08333333333333   -0.41666666666667             1
    0.08333333333333    0.25000000000000   -0.41666666666667             1
    0.25000000000000    0.25000000000000   -0.41666666666667             1
    0.41666666666667    0.25000000000000   -0.41666666666667             1
   -0.41666666666667    0.25000000000000   -0.41666666666667             1
   -0.25000000000000    0.25000000000000   -0.41666666666667             1
   -0.08333333333333    0.25000000000000   -0.41666666666667             1
    0.08333333333333    0.41666666666667   -0.41666666666667             1
    0.25000000000000    0.41666666666667   -0.41666666666667             1
    0.41666666666667    0.41666666666667   -0.41666666666667             1
   -0.41666666666667    0.41666666666667   -0.41666666666667             1
   -0.25000000000000    0.41666666666667   -0.41666666666667             1
   -0.08333333333333    0.41666666666667   -0.41666666666667             1
    0.08333333333333   -0.41666666666667   -0.41666666666667             1
    0.25000000000000   -0.41666666666667   -0.41666666666667             1
    0.41666666666667   -0.41666666666667   -0.41666666666667             1
   -0.41666666666667   -0.41666666666667   -0.41666666666667             1
   -0.25000000000000   -0.41666666666667   -0.41666666666667             1
   -0.08333333333333   -0.41666666666667   -0.41666666666667             1
    0.08333333333333   -0.25000000000000   -0.41666666666667             1
    0.25000000000000   -0.25000000000000   -0.41666666666667             1
    0.41666666666667   -0.25000000000000   -0.41666666666667             1
   -0.41666666666667   -0.25000000000000   -0.41666666666667             1
   -0.25000000000000   -0.25000000000000   -0.41666666666667             1
   -0.08333333333333   -0.25000000000000   -0.41666666666667             1
    0.08333333333333   -0.08333333333333   -0.41666666666667             1
    0.25000000000000   -0.08333333333333   -0.41666666666667             1
    0.41666666666667   -0.08333333333333   -0.41666666666667             1
   -0.41666666666667   -0.08333333333333   -0.41666666666667             1
   -0.25000000000000   -0.08333333333333   -0.41666666666667             1
   -0.08333333333333   -0.08333333333333   -0.41666666666667             1
    0.08333333333333    0.08333333333333   -0.25000000000000             1
    0.25000000000000    0.08333333333333   -0.25000000000000             1
    0.41666666666667    0.08333333333333   -0.25000000000000             1
   -0.41666666666667    0.08333333333333   -0.25000000000000             1
   -0.25000000000000    0.08333333333333   -0.25000000000000             1
   -0.08333333333333    0.08333333333333   -0.25000000000000             1
    0.08333333333333    0.25000000000000   -0.25000000000000             1
    0.25000000000000    0.25000000000000   -0.25000000000000             1
    0.41666666666667    0.25000000000000   -0.25000000000000             1
   -0.41666666666667    0.25000000000000   -0.25000000000000             1
   -0.25000000000000    0.25000000000000   -0.25000000000000             1
   -0.08333333333333    0.25000000000000   -0.25000000000000             1
    0.08333333333333    0.41666666666667   -0.25000000000000             1
    0.25000000000000    0.41666666666667   -0.25000000000000             1
    0.41666666666667    0.41666666666667   -0.25000000000000             1
   -0.41666666666667    0.41666666666667   -0.25000000000000             1
   -0.25000000000000    0.41666666666667   -0.25000000000000             1
   -0.08333333333333    0.41666666666667   -0.25000000000000             1
    0.08333333333333   -0.41666666666667   -0.25000000000000             1
    0.25000000000000   -0.41666666666667   -0.25000000000000             1
    0.41666666666667   -0.41666666666667   -0.25000000000000             1
   -0.41666666666667   -0.41666666666667   -0.25000000000000             1
   -0.25000000000000   -0.41666666666667   -0.25000000000000             1
   -0.08333333333333   -0.41666666666667   -0.25000000000000             1
    0.08333333333333   -0.25000000000000   -0.25000000000000             1
    0.25000000000000   -0.25000000000000   -0.25000000000000             1
    0.41666666666667   -0.25000000000000   -0.25000000000000             1
   -0.41666666666667   -0.25000000000000   -0.25000000000000             1
   -0.25000000000000   -0.25000000000000   -0.25000000000000             1
   -0.08333333333333   -0.25000000000000   -0.25000000000000             1
    0.08333333333333   -0.08333333333333   -0.25000000000000             1
    0.25000000000000   -0.08333333333333   -0.25000000000000             1
    0.41666666666667   -0.08333333333333   -0.25000000000000             1
   -0.41666666666667   -0.08333333333333   -0.25000000000000             1
   -0.25000000000000   -0.08333333333333   -0.25000000000000             1
   -0.08333333333333   -0.08333333333333   -0.25000000000000             1
    0.08333333333333    0.08333333333333   -0.08333333333333             1
    0.25000000000000    0.08333333333333   -0.08333333333333             1
    0.41666666666667    0.08333333333333   -0.08333333333333             1
   -0.41666666666667    0.08333333333333   -0.08333333333333             1
   -0.25000000000000    0.08333333333333   -0.08333333333333             1
   -0.08333333333333    0.08333333333333   -0.08333333333333             1
    0.08333333333333    0.25000000000000   -0.08333333333333             1
    0.25000000000000    0.25000000000000   -0.08333333333333             1
    0.41666666666667    0.25000000000000   -0.08333333333333             1
   -0.41666666666667    0.25000000000000   -0.08333333333333             1
   -0.25000000000000    0.25000000000000   -0.08333333333333             1
   -0.08333333333333    0.25000000000000   -0.08333333333333             1
    0.08333333333333    0.41666666666667   -0.08333333333333             1
    0.25000000000000    0.41666666666667   -0.08333333333333             1
    0.41666666666667    0.41666666666667   -0.08333333333333             1
   -0.41666666666667    0.41666666666667   -0.08333333333333             1
   -0.25000000000000    0.41666666666667   -0.08333333333333             1
   -0.08333333333333    0.41666666666667   -0.08333333333333             1
    0.08333333333333   -0.41666666666667   -0.08333333333333             1
    0.25000000000000   -0.41666666666667   -0.08333333333333             1
    0.41666666666667   -0.41666666666667   -0.08333333333333             1
   -0.41666666666667   -0.41666666666667   -0.08333333333333             1
   -0.25000000000000   -0.41666666666667   -0.08333333333333             1
   -0.08333333333333   -0.41666666666667   -0.08333333333333             1
    0.08333333333333   -0.25000000000000   -0.08333333333333             1
    0.25000000000000   -0.25000000000000   -0.08333333333333             1
    0.41666666666667   -0.25000000000000   -0.08333333333333             1
   -0.41666666666667   -0.25000000000000   -0.08333333333333             1
   -0.25000000000000   -0.25000000000000   -0.08333333333333             1
   -0.08333333333333   -0.25000000000000   -0.08333333333333             1
    0.08333333333333   -0.08333333333333   -0.08333333333333             1
    0.25000000000000   -0.08333333333333   -0.08333333333333             1
    0.41666666666667   -0.08333333333333   -0.08333333333333             1
   -0.41666666666667   -0.08333333333333   -0.08333333333333             1
   -0.25000000000000   -0.08333333333333   -0.08333333333333             1
   -0.08333333333333   -0.08333333333333   -0.08333333333333             1
Tetrahedra
      1296    0.00077160493827
         1         1         2         8        37
         1         1         7         8        37
         1         7         8        37        43
         1         2         8        37        38
         1         8        37        38        44
         1         8        37        43        44
         1         2         3         9        38
         1         2         8         9        38
         1         8         9        38        44
         1         3         9        38        39
         1         9        38        39        45
         1         9        38        44        45
         1         3         4        10        39
         1         3         9        10        39
         1         9        10        39        45
         1         4        10        39        40
         1        10        39        40        46
         1        10        39        45        46
         1         4         5        11        40
         1         4        10        11        40
         1        10        11        40        46
         1         5        11        40        41
         1        11        40        41        47
         1        11        40        46        47
         1         5         6        12        41
         1         5        11        12        41
         1        11        12        41        47
         1         6        12        41        42
         1        12        41        42        48
         1        12        41        47        48
         1         1         6         7        42
         1         6         7        12        42
         1         7        12        42        48
         1         1         7        37        42
         1         7        37        42        43
         1         7        42        43        48
         1         7         8        14        43
         1         7        13        14        43
         1        13        14        43        49
         1         8        14        43        44
         1        14        43        44        50
         1        14        43        49        50
         1         8         9        15        44
         1         8        14        15        44
         1        14        15        44        50
         1         9        15        44        45
         1        15        44        45        51
         1        15        44        50        51
         1         9        10        16        45
         1         9        15        16        45
         1        15        16        45        51
         1        10        16        45        46
         1        16        45        46        52
         1        16        45        51        52
         1        10        11        17        46
         1        10        16        17        46
         1        16        17        46        52
         1        11        17        46        47
         1        17        46        47        53
         1        17        46        52        53
         1        11        12        18        47
         1        11        17        18        47
         1        17        18        47        53
         1        12        18        47        48
         1        18        47        48        54
         1        18        47        53        54
         1         7        12        13        48
         1        12        13        18        48
         1        13        18        48        54
         1         7        13        43        48
         1        13        43        48        49
         1        13        48        49        54
         1        13        14        20        49
         1        13        19        20        49
         1        19        20        49        55
         1        14        20        49        50
         1        20        49        50        56
         1        20        49        55        56
         1        14        15        21        50
         1        14        20        21        50
         1        20        21        50        56
         1        15        21        50        51
         1        21        50        51        57
         1        21        50        56        57
         1        15        16        22        51
         1        15        21        22        51
         1        21        22        51        57
         1        16        22        51        52
         1        22        51        52        58
         1        22        51        57        58
         1        16        17        23        52
         1        16        22        23        52
         1        22        23        52        58
         1        17        23        52        53
         1        23        52        53        59
         1        23        52        58        59
         1        17        18        24        53
         1        17        23        24        53
         1        23        24        53        59
         1        18        24        53        54
         1        24        53        54        60
         1        24        53        59        60
         1        13        18        19        54
         1        18        19        24        54
         1        19        24        54        60
         1        13        19        49        54
         1        19        49        54        55
         1        19        54        55        60
         1        19        20        26        55
         1        19        25        26        55
         1        25        26        55        61
         1        20        26        55        56
         1        26        55        56        62
         1        26        55        61        62
         1        20        21        27        56
         1        20        26        27        56
         1        26        27        56        62
         1        21        27        56        57
         1        27        56        57        63
         1        27        56        62        63
         1        21        22        28        57
         1        21        27        28        57
         1        27        28        57        63
         1        22        28        57        58
         1        28        57        58        64
         1        28        57        63        64
         1        22        23        29        58
         1        22        28        29        58
         1        28        29        58        64
         1        23        29        58        59
         1        29        58        59        65
         1        29        58        64        65
         1        23        24        30        59
         1        23        29        30        59
         1        29        30        59        65
         1        24        30        59        60
         1        30        59        60        66
         1        30        59        65        66
         1        19        24        25        60
         1        24        25        30        60
         1        25        30        60        66
         1        19        25        55        60
         1        25        55        60        61
         1        25        60        61        66
         1        25        26        32        61
         1        25        31        32        61
         1        31        32        61        67
         1        26        32        61        62
         1        32        61        62        68
         1        32        61        67        68
         1        26        27        33        62
         1        26        32        33        62
         1        32        33        62        68
         1        27        33        62        63
         1        33        62        63        69
         1        33        62        68        69
         1        27        28        34        63
         1        27        33        34        63
         1        33        34        63        69
         1        28        34        63        64
         1        34        63        64        70
         1        34        63        69        70
         1        28        29        35        64
         1        28        34        35        64
         1        34        35        64        70
         1        29        35        64        65
         1        35        64        65        71
         1        35        64        70        71
         1        29        30        36        65
         1        29        35        36        65
         1        35        36        65        71
         1        30        36        65        66
         1        36        65        66        72
         1        36        65        71        72
         1        25        30        31        66
         1        30        31        36        66
         1        31        36        66        72
         1        25        31        61        66
         1        31        61        66        67
         1        31        66        67        72
         1         2        31        32        67
         1         1         2        31        67
         1         1         2        37        67
         1         2        32        67        68
         1         2        38        67        68
         1         2        37        38        67
         1         3        32        33        68
         1         2         3        32        68
         1         2         3        38        68
         1         3        33        68        69
         1         3        39        68        69
         1         3        38        39        68
         1         4        33        34        69
         1         3         4        33        69
         1         3         4        39        69
         1         4        34        69        70
         1         4        40        69        70
         1         4        39        40        69
         1         5        34        35        70
         1         4         5        34        70
         1         4         5        40        70
         1         5        35        70        71
         1         5        41        70        71
         1         5        40        41        70
         1         6        35        36        71
         1         5         6        35        71
         1         5         6        41        71
         1         6        36        71        72
         1         6        42        71        72
         1         6        41        42        71
         1         1        31        36        72
         1         1         6        36        72
         1         1         6        42        72
         1         1        31        67        72
         1         1        37        67        72
         1         1        37        42        72
         1        37        38        44        73
         1        37        43        44        73
         1        43        44        73        79
         1        38        44        73        74
         1        44        73        74        80
         1        44        73        79        80
         1        38        39        45        74
         1        38        44        45        74
         1        44        45        74        80
         1        39        45        74        75
         1        45        74        75        81
         1        45        74        80        81
         1        39        40        46        75
         1        39        45        46        75
         1        45        46        75        81
         1        40        46        75        76
         1        46        75        76        82
         1        46        75        81        82
         1        40        41        47        76
         1        40        46        47        76
         1        46        47        76        82
         1        41        47        76        77
         1        47        76        77        83
         1        47        76        82        83
         1        41        42        48        77
         1        41        47        48        77
         1        47        48        77        83
         1        42        48        77        78
         1        48        77        78        84
         1        48        77        83        84
         1        37        42        43        78
         1        42        43        48        78
         1        43        48        78        84
         1        37        43        73        78
         1        43        73        78        79
         1        43        78        79        84
         1        43        44        50        79
         1        43        49        50        79
         1        49        50        79        85
         1        44        50        79        80
         1        50        79        80        86
         1        50        79        85        86
         1        44        45        51        80
         1        44        50        51        80
         1        50        51        80        86
         1        45        51        80        81
         1        51        80        81        87
         1        51        80        86        87
         1        45        46        52        81
         1        45        51        52        81
         1        51        52        81        87
         1        46        52        81        82