 running on   16 total cores
 distrk:  each k-point on   16 cores,    1 groups
 distr:  one band on    2 cores,    8 groups
 using from now: INCAR     
 vasp.5.3.2 13Sep12 (build Sep  9 2014 11:37:56) complex                        
  
 POSCAR found type information on POSCAR  U  O 
 POSCAR found :  2 types and      12 ions
 LDA part: xc-table for Ceperly-Alder, standard interpolation
 POSCAR, INCAR and KPOINTS ok, starting setup
 FFT: planning ...
 WAVECAR not read
 entering main loop
       N       E                     dE             d eps       ncg     rms          rms(c)
DAV:   1     0.138233284390E+04    0.13823E+04   -0.39629E+04 55296   0.160E+03
DAV:   2     0.250207892847E+03   -0.11321E+04   -0.10521E+04 58784   0.464E+02
DAV:   3    -0.832118236496E+02   -0.33342E+03   -0.31836E+03 71880   0.226E+02
DAV:   4    -0.144380488275E+03   -0.61169E+02   -0.59331E+02 91520   0.904E+01
DAV:   5    -0.148904587471E+03   -0.45241E+01   -0.42375E+01 99824   0.268E+01    0.224E+01
DAV:   6    -0.140086934829E+03    0.88177E+01   -0.10701E+02 84504   0.391E+01    0.132E+01
DAV:   7    -0.138471653309E+03    0.16153E+01   -0.24510E+01 89824   0.321E+01    0.109E+01
DAV:   8    -0.140118410089E+03   -0.16468E+01   -0.39193E+00 93752   0.120E+01    0.222E+01
DAV:   9    -0.138622214383E+03    0.14962E+01   -0.22354E+00 95848   0.812E+00    0.135E+01
DAV:  10    -0.138136269397E+03    0.48594E+00   -0.11619E+00 99600   0.561E+00    0.490E+00
DAV:  11    -0.138121304463E+03    0.14965E-01   -0.28335E-01101248   0.304E+00    0.458E+00
DAV:  12    -0.138129479295E+03   -0.81748E-02   -0.18317E-01 99008   0.243E+00    0.484E+00
DAV:  13    -0.138081247451E+03    0.48232E-01   -0.63543E-02102144   0.158E+00    0.108E+00
DAV:  14    -0.138081048999E+03    0.19845E-03   -0.14397E-02106008   0.707E-01    0.374E-01
DAV:  15    -0.138081201608E+03   -0.15261E-03   -0.21957E-03 93936   0.296E-01    0.343E-01
DAV:  16    -0.138081216100E+03   -0.14492E-04   -0.89725E-04107632   0.179E-01    0.164E-01
DAV:  17    -0.138081266828E+03   -0.50728E-04   -0.41927E-04 99072   0.103E-01    0.957E-02
DAV:  18    -0.138081311543E+03   -0.44715E-04   -0.17107E-04 95960   0.646E-02    0.916E-02
DAV:  19    -0.138081331334E+03   -0.19791E-04   -0.10090E-04 88384   0.453E-02    0.362E-02
DAV:  20    -0.138081342606E+03   -0.11272E-04   -0.29647E-05 68040   0.241E-02    0.278E-02
DAV:  21    -0.138081355981E+03   -0.13374E-04   -0.51601E-05 79528   0.294E-02    0.273E-02
DAV:  22    -0.138081360998E+03   -0.50176E-05   -0.17758E-05 57432   0.191E-02
   1 F= -.13808136E+03 E0= -.13808136E+03  d E =0.000000E+00  mag=    -0.0129     0.0760     0.0527
 writing wavefunctions
sjob
