 vasp.5.3.2 13Sep12 (build Sep  9 2014 11:37:56) complex                        
  
 executed on             LinuxIFC date 2014.11.05  16:56:13
 running on   16 total cores
 distrk:  each k-point on   16 cores,    1 groups
 distr:  one band on NCORES_PER_BAND=   2 cores,    8 groups


--------------------------------------------------------------------------------------------------------


 INCAR:
 POTCAR:   PAW U 17Apr2000                        
 POTCAR:   PAW O 31May2000                        
 POTCAR:   PAW U 17Apr2000                        
   VRHFIN =U:  [Xe,5d,4f]                                                       
   LEXCH  = CA                                                                  
   EATOM  =  1409.7225 eV,  103.6117 Ry                                         
                                                                                
   TITEL  = PAW U 17Apr2000                                                     
   LULTRA =        F    use ultrasoft PP ?                                      
   IUNSCR =        1    unscreen: 0-lin 1-nonlin 2-no                           
   RPACOR =    2.200    partial core radius                                     
   POMASS =  238.029; ZVAL   =   14.000    mass and valenz                      
   RCORE  =    2.800    outmost cutoff radius                                   
   RWIGS  =    3.000; RWIGS  =    1.588    wigner-seitz radius (au A)           
   ENMAX  =  252.603; ENMIN  =  189.452 eV                                      
   RCLOC  =    1.811    cutoff for local pot                                    
   LCOR   =        T    correct aug charges                                     
   LPAW   =        T    paw PP                                                  
   EAUG   =  526.410                                                            
   DEXC   =     .000                                                            
   RMAX   =    2.901    core radius for proj-oper                               
   RAUG   =    1.300    factor for augmentation sphere                          
   RDEP   =    2.950    core radius for depl-charge                             
   QCUT   =   -4.309; QGAM   =    8.618    optimization parameters              
                                                                                
   Description                                                                  
     l     E      TYP  RCUT    TYP  RCUT                                        
     0   .000     23  2.600                                                     
     0   .000     23  2.600                                                     
     1   .000     23  2.500                                                     
     1  2.000     23  2.500                                                     
     2   .000     23  2.500                                                     
     2   .000     23  2.500                                                     
     3   .000     23  2.800                                                     
     3   .000     23  2.800                                                     
  local pseudopotential read in
  partial core-charges read in
  atomic valenz-charges read in
  non local Contribution for L=           0  read in
    real space projection operators read in
  non local Contribution for L=           0  read in
    real space projection operators read in
  non local Contribution for L=           1  read in
    real space projection operators read in
  non local Contribution for L=           1  read in
    real space projection operators read in
  non local Contribution for L=           2  read in
    real space projection operators read in
  non local Contribution for L=           2  read in
    real space projection operators read in
  non local Contribution for L=           3  read in
    real space projection operators read in
  non local Contribution for L=           3  read in
    real space projection operators read in
    PAW grid and wavefunctions read in
 
   number of l-projection  operators is LMAX  =           8
   number of lm-projection operators is LMMAX =          32
 
 POTCAR:   PAW O 31May2000                        
   VRHFIN =O: s2p4                                                              
   LEXCH  = CA                                                                  
   EATOM  =   431.4447 eV,   31.7103 Ry                                         
                                                                                
   TITEL  = PAW O 31May2000                                                     
   LULTRA =        F    use ultrasoft PP ?                                      
   IUNSCR =        0    unscreen: 0-lin 1-nonlin 2-no                           
   RPACOR =     .000    partial core radius                                     
   POMASS =   16.000; ZVAL   =    6.000    mass and valenz                      
   RCORE  =    1.520    outmost cutoff radius                                   
   RWIGS  =    1.550; RWIGS  =     .820    wigner-seitz radius (au A)           
   ENMAX  =  400.000; ENMIN  =  300.000 eV                                      
   ICORE  =        2    local potential                                         
   LCOR   =        T    correct aug charges                                     
   LPAW   =        T    paw PP                                                  
   EAUG   =  605.392                                                            
   DEXC   =     .000                                                            
   RMAX   =    2.265    core radius for proj-oper                               
   RAUG   =    1.300    factor for augmentation sphere                          
   RDEP   =    1.550    radius for radial grids                                 
   QCUT   =   -5.518; QGAM   =   11.037    optimization parameters              
                                                                                
   Description                                                                  
     l     E      TYP  RCUT    TYP  RCUT                                        
     0   .000     23  1.200                                                     
     0  -.700     23  1.200                                                     
     1   .000     23  1.520                                                     
     1   .600     23  1.520                                                     
     2   .000      7  1.500                                                     
  local pseudopotential read in
  atomic valenz-charges read in
  non local Contribution for L=           0  read in
    real space projection operators read in
  non local Contribution for L=           0  read in
    real space projection operators read in
  non local Contribution for L=           1  read in
    real space projection operators read in
  non local Contribution for L=           1  read in
    real space projection operators read in
    PAW grid and wavefunctions read in
 
   number of l-projection  operators is LMAX  =           4
   number of lm-projection operators is LMMAX =           8
 
 PAW U 17Apr2000                        :
 energy of atom  1       EATOM=-1409.7225
 kinetic energy error for atom=    0.0035 (will be added to EATOM!!)
 PAW O 31May2000                        :
 energy of atom  2       EATOM= -431.4447
 kinetic energy error for atom=    0.0704 (will be added to EATOM!!)
 
 
 POSCAR: O2 U1                                   
  positions in direct lattice
  No initial velocities read in
 exchange correlation table for  LEXCH =        2
   RHO(1)=    0.500       N(1)  =     2000
   RHO(2)=  100.500       N(2)  =     4000
 


--------------------------------------------------------------------------------------------------------


 ion  position               nearest neighbor table
   1  0.000  0.000  0.000-   5 2.37   6 2.37   7 2.37   8 2.37   9 2.37  10 2.37  11 2.37  12 2.37

   2  0.000  0.500  0.500-   5 2.37   6 2.37   7 2.37   8 2.37   9 2.37  10 2.37  11 2.37  12 2.37

   3  0.500  0.000  0.500-   5 2.37   6 2.37   7 2.37   8 2.37   9 2.37  10 2.37  11 2.37  12 2.37

   4  0.500  0.500  0.000-   5 2.37   6 2.37   7 2.37   8 2.37   9 2.37  10 2.37  11 2.37  12 2.37

   5  0.250  0.250  0.250-   1 2.37   2 2.37   3 2.37   4 2.37
   6  0.750  0.750  0.750-   1 2.37   2 2.37   3 2.37   4 2.37
   7  0.750  0.750  0.250-   1 2.37   2 2.37   3 2.37   4 2.37
   8  0.250  0.250  0.750-   1 2.37   2 2.37   3 2.37   4 2.37
   9  0.750  0.250  0.750-   1 2.37   2 2.37   3 2.37   4 2.37
  10  0.250  0.750  0.250-   1 2.37   2 2.37   3 2.37   4 2.37
  11  0.250  0.750  0.750-   1 2.37   2 2.37   3 2.37   4 2.37
  12  0.750  0.250  0.250-   1 2.37   2 2.37   3 2.37   4 2.37
 

IMPORTANT INFORMATION: All symmetrisations will be switched off!
NOSYMM: (Re-)initialisation of all symmetry stuff for point group C_1.

 
 
 KPOINTS: Monkhost Pack                           

Automatic generation of k-mesh.
Space group operators:
 irot       det(A)        alpha          n_x          n_y          n_z        tau_x        tau_y        tau_z
    1     1.000000     0.000001     1.000000     0.000000     0.000000     0.000000     0.000000     0.000000
 
 Subroutine IBZKPT returns following result:
 ===========================================
 
 Found    216 irreducible k-points:
 
 Following reciprocal coordinates:
            Coordinates               Weight
  0.083333  0.083333  0.083333      1.000000
  0.250000  0.083333  0.083333      1.000000
  0.416667  0.083333  0.083333      1.000000
 -0.416667  0.083333  0.083333      1.000000
 -0.250000  0.083333  0.083333      1.000000
 -0.083333  0.083333  0.083333      1.000000
  0.083333  0.250000  0.083333      1.000000
  0.250000  0.250000  0.083333      1.000000
  0.416667  0.250000  0.083333      1.000000
 -0.416667  0.250000  0.083333      1.000000
 -0.250000  0.250000  0.083333      1.000000
 -0.083333  0.250000  0.083333      1.000000
  0.083333  0.416667  0.083333      1.000000
  0.250000  0.416667  0.083333      1.000000
  0.416667  0.416667  0.083333      1.000000
 -0.416667  0.416667  0.083333      1.000000
 -0.250000  0.416667  0.083333      1.000000
 -0.083333  0.416667  0.083333      1.000000
  0.083333 -0.416667  0.083333      1.000000
  0.250000 -0.416667  0.083333      1.000000
  0.416667 -0.416667  0.083333      1.000000
 -0.416667 -0.416667  0.083333      1.000000
 -0.250000 -0.416667  0.083333      1.000000
 -0.083333 -0.416667  0.083333      1.000000
  0.083333 -0.250000  0.083333      1.000000
  0.250000 -0.250000  0.083333      1.000000
  0.416667 -0.250000  0.083333      1.000000
 -0.416667 -0.250000  0.083333      1.000000
 -0.250000 -0.250000  0.083333      1.000000
 -0.083333 -0.250000  0.083333      1.000000
  0.083333 -0.083333  0.083333      1.000000
  0.250000 -0.083333  0.083333      1.000000
  0.416667 -0.083333  0.083333      1.000000
 -0.416667 -0.083333  0.083333      1.000000
 -0.250000 -0.083333  0.083333      1.000000
 -0.083333 -0.083333  0.083333      1.000000
  0.083333  0.083333  0.250000      1.000000
  0.250000  0.083333  0.250000      1.000000
  0.416667  0.083333  0.250000      1.000000
 -0.416667  0.083333  0.250000      1.000000
 -0.250000  0.083333  0.250000      1.000000
 -0.083333  0.083333  0.250000      1.000000
  0.083333  0.250000  0.250000      1.000000
  0.250000  0.250000  0.250000      1.000000
  0.416667  0.250000  0.250000      1.000000
 -0.416667  0.250000  0.250000      1.000000
 -0.250000  0.250000  0.250000      1.000000
 -0.083333  0.250000  0.250000      1.000000
  0.083333  0.416667  0.250000      1.000000
  0.250000  0.416667  0.250000      1.000000
  0.416667  0.416667  0.250000      1.000000
 -0.416667  0.416667  0.250000      1.000000
 -0.250000  0.416667  0.250000      1.000000
 -0.083333  0.416667  0.250000      1.000000
  0.083333 -0.416667  0.250000      1.000000
  0.250000 -0.416667  0.250000      1.000000
  0.416667 -0.416667  0.250000      1.000000
 -0.416667 -0.416667  0.250000      1.000000
 -0.250000 -0.416667  0.250000      1.000000
 -0.083333 -0.416667  0.250000      1.000000
  0.083333 -0.250000  0.250000      1.000000
  0.250000 -0.250000  0.250000      1.000000
  0.416667 -0.250000  0.250000      1.000000
 -0.416667 -0.250000  0.250000      1.000000
 -0.250000 -0.250000  0.250000      1.000000
 -0.083333 -0.250000  0.250000      1.000000
  0.083333 -0.083333  0.250000      1.000000
  0.250000 -0.083333  0.250000      1.000000
  0.416667 -0.083333  0.250000      1.000000
 -0.416667 -0.083333  0.250000      1.000000
 -0.250000 -0.083333  0.250000      1.000000
 -0.083333 -0.083333  0.250000      1.000000
  0.083333  0.083333  0.416667      1.000000
  0.250000  0.083333  0.416667      1.000000
  0.416667  0.083333  0.416667      1.000000
 -0.416667  0.083333  0.416667      1.000000
 -0.250000  0.083333  0.416667      1.000000
 -0.083333  0.083333  0.416667      1.000000
  0.083333  0.250000  0.416667      1.000000
  0.250000  0.250000  0.416667      1.000000
  0.416667  0.250000  0.416667      1.000000
 -0.416667  0.250000  0.416667      1.000000
 -0.250000  0.250000  0.416667      1.000000
 -0.083333  0.250000  0.416667      1.000000
  0.083333  0.416667  0.416667      1.000000
  0.250000  0.416667  0.416667      1.000000
  0.416667  0.416667  0.416667      1.000000
 -0.416667  0.416667  0.416667      1.000000
 -0.250000  0.416667  0.416667      1.000000
 -0.083333  0.416667  0.416667      1.000000
  0.083333 -0.416667  0.416667      1.000000
  0.250000 -0.416667  0.416667      1.000000
  0.416667 -0.416667  0.416667      1.000000
 -0.416667 -0.416667  0.416667      1.000000
 -0.250000 -0.416667  0.416667      1.000000
 -0.083333 -0.416667  0.416667      1.000000
  0.083333 -0.250000  0.416667      1.000000
  0.250000 -0.250000  0.416667      1.000000
  0.416667 -0.250000  0.416667      1.000000
 -0.416667 -0.250000  0.416667      1.000000
 -0.250000 -0.250000  0.416667      1.000000
 -0.083333 -0.250000  0.416667      1.000000
  0.083333 -0.083333  0.416667      1.000000
  0.250000 -0.083333  0.416667      1.000000
  0.416667 -0.083333  0.416667      1.000000
 -0.416667 -0.083333  0.416667      1.000000
 -0.250000 -0.083333  0.416667      1.000000
 -0.083333 -0.083333  0.416667      1.000000
  0.083333  0.083333 -0.416667      1.000000
  0.250000  0.083333 -0.416667      1.000000
  0.416667  0.083333 -0.416667      1.000000
 -0.416667  0.083333 -0.416667      1.000000
 -0.250000  0.083333 -0.416667      1.000000
 -0.083333  0.083333 -0.416667      1.000000
  0.083333  0.250000 -0.416667      1.000000
  0.250000  0.250000 -0.416667      1.000000
  0.416667  0.250000 -0.416667      1.000000
 -0.416667  0.250000 -0.416667      1.000000
 -0.250000  0.250000 -0.416667      1.000000
 -0.083333  0.250000 -0.416667      1.000000
  0.083333  0.416667 -0.416667      1.000000
  0.250000  0.416667 -0.416667      1.000000
  0.416667  0.416667 -0.416667      1.000000
 -0.416667  0.416667 -0.416667      1.000000
 -0.250000  0.416667 -0.416667      1.000000
 -0.083333  0.416667 -0.416667      1.000000
  0.083333 -0.416667 -0.416667      1.000000
  0.250000 -0.416667 -0.416667      1.000000
  0.416667 -0.416667 -0.416667      1.000000
 -0.416667 -0.416667 -0.416667      1.000000
 -0.250000 -0.416667 -0.416667      1.000000
 -0.083333 -0.416667 -0.416667      1.000000
  0.083333 -0.250000 -0.416667      1.000000
  0.250000 -0.250000 -0.416667      1.000000
  0.416667 -0.250000 -0.416667      1.000000
 -0.416667 -0.250000 -0.416667      1.000000
 -0.250000 -0.250000 -0.416667      1.000000
 -0.083333 -0.250000 -0.416667      1.000000
  0.083333 -0.083333 -0.416667      1.000000
  0.250000 -0.083333 -0.416667      1.000000
  0.416667 -0.083333 -0.416667      1.000000
 -0.416667 -0.083333 -0.416667      1.000000
 -0.250000 -0.083333 -0.416667      1.000000
 -0.083333 -0.083333 -0.416667      1.000000
  0.083333  0.083333 -0.250000      1.000000
  0.250000  0.083333 -0.250000      1.000000
  0.416667  0.083333 -0.250000      1.000000
 -0.416667  0.083333 -0.250000      1.000000
 -0.250000  0.083333 -0.250000      1.000000
 -0.083333  0.083333 -0.250000      1.000000
  0.083333  0.250000 -0.250000      1.000000
  0.250000  0.250000 -0.250000      1.000000
  0.416667  0.250000 -0.250000      1.000000
 -0.416667  0.250000 -0.250000      1.000000
 -0.250000  0.250000 -0.250000      1.000000
 -0.083333  0.250000 -0.250000      1.000000
  0.083333  0.416667 -0.250000      1.000000
  0.250000  0.416667 -0.250000      1.000000
  0.416667  0.416667 -0.250000      1.000000
 -0.416667  0.416667 -0.250000      1.000000
 -0.250000  0.416667 -0.250000      1.000000
 -0.083333  0.416667 -0.250000      1.000000
  0.083333 -0.416667 -0.250000      1.000000
  0.250000 -0.416667 -0.250000      1.000000
  0.416667 -0.416667 -0.250000      1.000000
 -0.416667 -0.416667 -0.250000      1.000000
 -0.250000 -0.416667 -0.250000      1.000000
 -0.083333 -0.416667 -0.250000      1.000000
  0.083333 -0.250000 -0.250000      1.000000
  0.250000 -0.250000 -0.250000      1.000000
  0.416667 -0.250000 -0.250000      1.000000
 -0.416667 -0.250000 -0.250000      1.000000
 -0.250000 -0.250000 -0.250000      1.000000
 -0.083333 -0.250000 -0.250000      1.000000
  0.083333 -0.083333 -0.250000      1.000000
  0.250000 -0.083333 -0.250000      1.000000
  0.416667 -0.083333 -0.250000      1.000000
 -0.416667 -0.083333 -0.250000      1.000000
 -0.250000 -0.083333 -0.250000      1.000000
 -0.083333 -0.083333 -0.250000      1.000000
  0.083333  0.083333 -0.083333      1.000000
  0.250000  0.083333 -0.083333      1.000000
  0.416667  0.083333 -0.083333      1.000000
 -0.416667  0.083333 -0.083333      1.000000
 -0.250000  0.083333 -0.083333      1.000000
 -0.083333  0.083333 -0.083333      1.000000
  0.083333  0.250000 -0.083333      1.000000
  0.250000  0.250000 -0.083333      1.000000
  0.416667  0.250000 -0.083333      1.000000
 -0.416667  0.250000 -0.083333      1.000000
 -0.250000  0.250000 -0.083333      1.000000
 -0.083333  0.250000 -0.083333      1.000000
  0.083333  0.416667 -0.083333      1.000000
  0.250000  0.416667 -0.083333      1.000000
  0.416667  0.416667 -0.083333      1.000000
 -0.416667  0.416667 -0.083333      1.000000
 -0.250000  0.416667 -0.083333      1.000000
 -0.083333  0.416667 -0.083333      1.000000
  0.083333 -0.416667 -0.083333      1.000000
  0.250000 -0.416667 -0.083333      1.000000
  0.416667 -0.416667 -0.083333      1.000000
 -0.416667 -0.416667 -0.083333      1.000000
 -0.250000 -0.416667 -0.083333      1.000000
 -0.083333 -0.416667 -0.083333      1.000000
  0.083333 -0.250000 -0.083333      1.000000
  0.250000 -0.250000 -0.083333      1.000000
  0.416667 -0.250000 -0.083333      1.000000
 -0.416667 -0.250000 -0.083333      1.000000
 -0.250000 -0.250000 -0.083333      1.000000
 -0.083333 -0.250000 -0.083333      1.000000
  0.083333 -0.083333 -0.083333      1.000000
  0.250000 -0.083333 -0.083333      1.000000
  0.416667 -0.083333 -0.083333      1.000000
 -0.416667 -0.083333 -0.083333      1.000000
 -0.250000 -0.083333 -0.083333      1.000000
 -0.083333 -0.083333 -0.083333      1.000000
 
 Following cartesian coordinates:
            Coordinates               Weight
  0.015240  0.015240  0.015240      1.000000
  0.045721  0.015240  0.015240      1.000000
  0.076201  0.015240  0.015240      1.000000
 -0.076201  0.015240  0.015240      1.000000
 -0.045721  0.015240  0.015240      1.000000
 -0.015240  0.015240  0.015240      1.000000
  0.015240  0.045721  0.015240      1.000000
  0.045721  0.045721  0.015240      1.000000
  0.076201  0.045721  0.015240      1.000000
 -0.076201  0.045721  0.015240      1.000000
 -0.045721  0.045721  0.015240      1.000000
 -0.015240  0.045721  0.015240      1.000000
  0.015240  0.076201  0.015240      1.000000
  0.045721  0.076201  0.015240      1.000000
  0.076201  0.076201  0.015240      1.000000
 -0.076201  0.076201  0.015240      1.000000
 -0.045721  0.076201  0.015240      1.000000
 -0.015240  0.076201  0.015240      1.000000
  0.015240 -0.076201  0.015240      1.000000
  0.045721 -0.076201  0.015240      1.000000
  0.076201 -0.076201  0.015240      1.000000
 -0.076201 -0.076201  0.015240      1.000000
 -0.045721 -0.076201  0.015240      1.000000
 -0.015240 -0.076201  0.015240      1.000000
  0.015240 -0.045721  0.015240      1.000000
  0.045721 -0.045721  0.015240      1.000000
  0.076201 -0.045721  0.015240      1.000000
 -0.076201 -0.045721  0.015240      1.000000
 -0.045721 -0.045721  0.015240      1.000000
 -0.015240 -0.045721  0.015240      1.000000
  0.015240 -0.015240  0.015240      1.000000
  0.045721 -0.015240  0.015240      1.000000
  0.076201 -0.015240  0.015240      1.000000
 -0.076201 -0.015240  0.015240      1.000000
 -0.045721 -0.015240  0.015240      1.000000
 -0.015240 -0.015240  0.015240      1.000000
  0.015240  0.015240  0.045721      1.000000
  0.045721  0.015240  0.045721      1.000000
  0.076201  0.015240  0.045721      1.000000
 -0.076201  0.015240  0.045721      1.000000
 -0.045721  0.015240  0.045721      1.000000
 -0.015240  0.015240  0.045721      1.000000
  0.015240  0.045721  0.045721      1.000000
  0.045721  0.045721  0.045721      1.000000
  0.076201  0.045721  0.045721      1.000000
 -0.076201  0.045721  0.045721      1.000000
 -0.045721  0.045721  0.045721      1.000000
 -0.015240  0.045721  0.045721      1.000000
  0.015240  0.076201  0.045721      1.000000
  0.045721  0.076201  0.045721      1.000000
  0.076201  0.076201  0.045721      1.000000
 -0.076201  0.076201  0.045721      1.000000
 -0.045721  0.076201  0.045721      1.000000
 -0.015240  0.076201  0.045721      1.000000
  0.015240 -0.076201  0.045721      1.000000
  0.045721 -0.076201  0.045721      1.000000
  0.076201 -0.076201  0.045721      1.000000
 -0.076201 -0.076201  0.045721      1.000000
 -0.045721 -0.076201  0.045721      1.000000
 -0.015240 -0.076201  0.045721      1.000000
  0.015240 -0.045721  0.045721      1.000000
  0.045721 -0.045721  0.045721      1.000000
  0.076201 -0.045721  0.045721      1.000000
 -0.076201 -0.045721  0.045721      1.000000
 -0.045721 -0.045721  0.045721      1.000000
 -0.015240 -0.045721  0.045721      1.000000
  0.015240 -0.015240  0.045721      1.000000
  0.045721 -0.015240  0.045721      1.000000
  0.076201 -0.015240  0.045721      1.000000
 -0.076201 -0.015240  0.045721      1.000000
 -0.045721 -0.015240  0.045721      1.000000
 -0.015240 -0.015240  0.045721      1.000000
  0.015240  0.015240  0.076201      1.000000
  0.045721  0.015240  0.076201      1.000000
  0.076201  0.015240  0.076201      1.000000
 -0.076201  0.015240  0.076201      1.000000
 -0.045721  0.015240  0.076201      1.000000
 -0.015240  0.015240  0.076201      1.000000
  0.015240  0.045721  0.076201      1.000000
  0.045721  0.045721  0.076201      1.000000
  0.076201  0.045721  0.076201      1.000000
 -0.076201  0.045721  0.076201      1.000000
 -0.045721  0.045721  0.076201      1.000000
 -0.015240  0.045721  0.076201      1.000000
  0.015240  0.076201  0.076201      1.000000
  0.045721  0.076201  0.076201      1.000000
  0.076201  0.076201  0.076201      1.000000
 -0.076201  0.076201  0.076201      1.000000
 -0.045721  0.076201  0.076201      1.000000
 -0.015240  0.076201  0.076201      1.000000
  0.015240 -0.076201  0.076201      1.000000
  0.045721 -0.076201  0.076201      1.000000
  0.076201 -0.076201  0.076201      1.000000
 -0.076201 -0.076201  0.076201      1.000000
 -0.045721 -0.076201  0.076201      1.000000
 -0.015240 -0.076201  0.076201      1.000000
  0.015240 -0.045721  0.076201      1.000000
  0.045721 -0.045721  0.076201      1.000000
  0.076201 -0.045721  0.076201      1.000000
 -0.076201 -0.045721  0.076201      1.000000
 -0.045721 -0.045721  0.076201      1.000000
 -0.015240 -0.045721  0.076201      1.000000
  0.015240 -0.015240  0.076201      1.000000
  0.045721 -0.015240  0.076201      1.000000
  0.076201 -0.015240  0.076201      1.000000
 -0.076201 -0.015240  0.076201      1.000000
 -0.045721 -0.015240  0.076201      1.000000
 -0.015240 -0.015240  0.076201      1.000000
  0.015240  0.015240 -0.076201      1.000000
  0.045721  0.015240 -0.076201      1.000000
  0.076201  0.015240 -0.076201      1.000000
 -0.076201  0.015240 -0.076201      1.000000
 -0.045721  0.015240 -0.076201      1.000000
 -0.015240  0.015240 -0.076201      1.000000
  0.015240  0.045721 -0.076201      1.000000
  0.045721  0.045721 -0.076201      1.000000
  0.076201  0.045721 -0.076201      1.000000
 -0.076201  0.045721 -0.076201      1.000000
 -0.045721  0.045721 -0.076201      1.000000
 -0.015240  0.045721 -0.076201      1.000000
  0.015240  0.076201 -0.076201      1.000000
  0.045721  0.076201 -0.076201      1.000000
  0.076201  0.076201 -0.076201      1.000000
 -0.076201  0.076201 -0.076201      1.000000
 -0.045721  0.076201 -0.076201      1.000000
 -0.015240  0.076201 -0.076201      1.000000
  0.015240 -0.076201 -0.076201      1.000000
  0.045721 -0.076201 -0.076201      1.000000
  0.076201 -0.076201 -0.076201      1.000000
 -0.076201 -0.076201 -0.076201      1.000000
 -0.045721 -0.076201 -0.076201      1.000000
 -0.015240 -0.076201 -0.076201      1.000000
  0.015240 -0.045721 -0.076201      1.000000
  0.045721 -0.045721 -0.076201      1.000000
  0.076201 -0.045721 -0.076201      1.000000
 -0.076201 -0.045721 -0.076201      1.000000
 -0.045721 -0.045721 -0.076201      1.000000
 -0.015240 -0.045721 -0.076201      1.000000
  0.015240 -0.015240 -0.076201      1.000000
  0.045721 -0.015240 -0.076201      1.000000
  0.076201 -0.015240 -0.076201      1.000000
 -0.076201 -0.015240 -0.076201      1.000000
 -0.045721 -0.015240 -0.076201      1.000000
 -0.015240 -0.015240 -0.076201      1.000000
  0.015240  0.015240 -0.045721      1.000000
  0.045721  0.015240 -0.045721      1.000000
  0.076201  0.015240 -0.045721      1.000000
 -0.076201  0.015240 -0.045721      1.000000
 -0.045721  0.015240 -0.045721      1.000000
 -0.015240  0.015240 -0.045721      1.000000
  0.015240  0.045721 -0.045721      1.000000
  0.045721  0.045721 -0.045721      1.000000
  0.076201  0.045721 -0.045721      1.000000
 -0.076201  0.045721 -0.045721      1.000000
 -0.045721  0.045721 -0.045721      1.000000
 -0.015240  0.045721 -0.045721      1.000000
  0.015240  0.076201 -0.045721      1.000000
  0.045721  0.076201 -0.045721      1.000000
  0.076201  0.076201 -0.045721      1.000000
 -0.076201  0.076201 -0.045721      1.000000
 -0.045721  0.076201 -0.045721      1.000000
 -0.015240  0.076201 -0.045721      1.000000
  0.015240 -0.076201 -0.045721      1.000000
  0.045721 -0.076201 -0.045721      1.000000
  0.076201 -0.076201 -0.045721      1.000000
 -0.076201 -0.076201 -0.045721      1.000000
 -0.045721 -0.076201 -0.045721      1.000000
 -0.015240 -0.076201 -0.045721      1.000000
  0.015240 -0.045721 -0.045721      1.000000
  0.045721 -0.045721 -0.045721      1.000000
  0.076201 -0.045721 -0.045721      1.000000
 -0.076201 -0.045721 -0.045721      1.000000
 -0.045721 -0.045721 -0.045721      1.000000
 -0.015240 -0.045721 -0.045721      1.000000
  0.015240 -0.015240 -0.045721      1.000000
  0.045721 -0.015240 -0.045721      1.000000
  0.076201 -0.015240 -0.045721      1.000000
 -0.076201 -0.015240 -0.045721      1.000000
 -0.045721 -0.015240 -0.045721      1.000000
 -0.015240 -0.015240 -0.045721      1.000000
  0.015240  0.015240 -0.015240      1.000000
  0.045721  0.015240 -0.015240      1.000000
  0.076201  0.015240 -0.015240      1.000000
 -0.076201  0.015240 -0.015240      1.000000
 -0.045721  0.015240 -0.015240      1.000000
 -0.015240  0.015240 -0.015240      1.000000
  0.015240  0.045721 -0.015240      1.000000
  0.045721  0.045721 -0.015240      1.000000
  0.076201  0.045721 -0.015240      1.000000
 -0.076201  0.045721 -0.015240      1.000000
 -0.045721  0.045721 -0.015240      1.000000
 -0.015240  0.045721 -0.015240      1.000000
  0.015240  0.076201 -0.015240      1.000000
  0.045721  0.076201 -0.015240      1.000000
  0.076201  0.076201 -0.015240      1.000000
 -0.076201  0.076201 -0.015240      1.000000
 -0.045721  0.076201 -0.015240      1.000000
 -0.015240  0.076201 -0.015240      1.000000
  0.015240 -0.076201 -0.015240      1.000000
  0.045721 -0.076201 -0.015240      1.000000
  0.076201 -0.076201 -0.015240      1.000000
 -0.076201 -0.076201 -0.015240      1.000000
 -0.045721 -0.076201 -0.015240      1.000000
 -0.015240 -0.076201 -0.015240      1.000000
  0.015240 -0.045721 -0.015240      1.000000
  0.045721 -0.045721 -0.015240      1.000000
  0.076201 -0.045721 -0.015240      1.000000
 -0.076201 -0.045721 -0.015240      1.000000
 -0.045721 -0.045721 -0.015240      1.000000
 -0.015240 -0.045721 -0.015240      1.000000
  0.015240 -0.015240 -0.015240      1.000000
  0.045721 -0.015240 -0.015240      1.000000
  0.076201 -0.015240 -0.015240      1.000000
 -0.076201 -0.015240 -0.015240      1.000000
 -0.045721 -0.015240 -0.015240      1.000000
 -0.015240 -0.015240 -0.015240      1.000000
 
 TETIRR: Found   1296 inequivalent tetrahedra from     1296


--------------------------------------------------------------------------------------------------------




 Dimension of arrays:
   k-points           NKPTS =    216   k-points in BZ     NKDIM =    216   number of bands    NBANDS=    128
   number of dos      NEDOS =    301   number of ions     NIONS =     12
   non local maximal  LDIM  =      8   non local SUM 2l+1 LMDIM =     32
   total plane-waves  NPLWV =  64000
   max r-space proj   IRMAX =      1   max aug-charges    IRDMAX=  24073
   dimension x,y,z NGX =    40 NGY =   40 NGZ =   40
   dimension x,y,z NGXF=    80 NGYF=   80 NGZF=   80
   support grid    NGXF=    80 NGYF=   80 NGZF=   80
   ions per type =               4   8
 NGX,Y,Z   is equivalent  to a cutoff of  12.16, 12.16, 12.16 a.u.
 NGXF,Y,Z  is equivalent  to a cutoff of  24.32, 24.32, 24.32 a.u.


 I would recommend the setting:
   dimension x,y,z NGX =    37 NGY =   37 NGZ =   37
 SYSTEM =  LIO                                     
 POSCAR =  O2 U1                                   

 Startparameter for this run:
   NWRITE =      2    write-flag & timer
   PREC   = accura    normal or accurate (medium, high low for compatibility)
   ISTART =      0    job   : 0-new  1-cont  2-samecut
   ICHARG =      2    charge: 1-file 2-atom 10-const
   ISPIN  =      1    spin polarized calculation?
   LNONCOLLINEAR =      T non collinear calculations
   LSORBIT =      T    spin-orbit coupling
   INIWAV =      1    electr: 0-lowe 1-rand  2-diag
   LASPH  =      T    aspherical Exc in radial PAW
   METAGGA=      F    non-selfconsistent MetaGGA calc.

 Electronic Relaxation 1
   ENCUT  =  420.0 eV  30.87 Ry    5.56 a.u.   9.14  9.14  9.14*2*pi/ulx,y,z
   ENINI  =  420.0     initial cutoff
   ENAUG  =  605.4 eV  augmentation charge cutoff
   NELM   =     60;   NELMIN=  2; NELMDL= -5     # of ELM steps 
   EDIFF  = 0.1E-04   stopping-criterion for ELM
   LREAL  =      F    real-space projection
   NLSPLINE    = F    spline interpolate recip. space projectors
   LCOMPAT=      F    compatible to vasp.4.4
   GGA_COMPAT  = T    GGA compatible to vasp.4.4-vasp.4.6
   LMAXPAW     = -100 max onsite density
   LMAXMIX     =    6 max onsite mixed and CHGCAR
   VOSKOWN=      0    Vosko Wilk Nusair interpolation
   ROPT   =    0.00000   0.00000
 Ionic relaxation
   EDIFFG = -.3E-04   stopping-criterion for IOM
   NSW    =      0    number of steps for IOM
   NBLOCK =      1;   KBLOCK =      1    inner block; outer block 
   IBRION =     -1    ionic relax: 0-MD 1-quasi-New 2-CG
   NFREE  =      1    steps in history (QN), initial steepest desc. (CG)
   ISIF   =      3    stress and relaxation
   IWAVPR =     10    prediction:  0-non 1-charg 2-wave 3-comb
   ISYM   =      0    0-nonsym 1-usesym 2-fastsym
   LCORR  =      T    Harris-Foulkes like correction to forces

   POTIM  = 0.5000    time-step for ionic-motion
   TEIN   =    0.0    initial temperature
   TEBEG  =    0.0;   TEEND  =   0.0 temperature during run
   SMASS  =  -3.00    Nose mass-parameter (am)
   estimated Nose-frequenzy (Omega)   =  0.10E-29 period in steps =****** mass=  -0.683E-27a.u.
   SCALEE = 1.0000    scale energy and forces
   NPACO  =    256;   APACO  = 16.0  distance and # of slots for P.C.
   PSTRESS=    0.0 pullay stress

  Mass of Ions in am
   POMASS = 238.03 16.00
  Ionic Valenz
   ZVAL   =  14.00  6.00
  Atomic Wigner-Seitz radii
   RWIGS  =  -1.00 -1.00
  virtual crystal weights 
   VCA    =   1.00  1.00
   NELECT =     104.0000    total number of electrons
   NUPDOWN=      -1.0000    fix difference up-down

 DOS related values:
   EMIN   =  10.00;   EMAX   =-10.00  energy-range for DOS
   EFERMI =   0.00
   ISMEAR =    -5;   SIGMA  =   0.01  broadening in eV -4-tet -1-fermi 0-gaus

 Electronic relaxation 2 (details)
   IALGO  =     38    algorithm
   LDIAG  =      T    sub-space diagonalisation (order eigenvalues)
   LSUBROT=      T    optimize rotation matrix (better conditioning)
   TURBO    =      0    0=normal 1=particle mesh
   IRESTART =      0    0=no restart 2=restart with 2 vectors
   NREBOOT  =      0    no. of reboots
   NMIN     =      0    reboot dimension
   EREF     =   0.00    reference energy to select bands
   IMIX   =      4    mixing-type and parameters
     AMIX     =   0.40;   BMIX     =  1.00
     AMIX_MAG =   1.60;   BMIX_MAG =  1.00
     AMIN     =   0.10
     WC   =   100.;   INIMIX=   1;  MIXPRE=   1;  MAXMIX= -45

 Intra band minimization:
   WEIMIN = 0.0000     energy-eigenvalue tresh-hold
   EBREAK =  0.59E-08  absolut break condition
   DEPER  =   0.30     relativ break condition  

   TIME   =   0.40     timestep for ELM

  volume/ion in A,a.u.               =      13.62        91.94
  Fermi-wavevector in a.u.,A,eV,Ry     =   1.407961  2.660661 26.971585  1.982356
  Thomas-Fermi vector in A             =   2.530168
 
 Write flags
   LWAVE  =      T    write WAVECAR
   LCHARG =      T    write CHGCAR
   LVTOT  =      F    write LOCPOT, total local potential
   LVHAR  =      F    write LOCPOT, Hartree potential only
   LELF   =      F    write electronic localiz. function (ELF)
   LORBIT =     11    0 simple, 1 ext, 2 COOP (PROOUT)


 Dipole corrections
   LMONO  =      F    monopole corrections only (constant potential shift)
   LDIPOL =      F    correct potential (dipole corrections)
   IDIPOL =      0    1-x, 2-y, 3-z, 4-all directions 
   EPSILON=  1.0000000 bulk dielectric constant

 LDA+U is selected, type is set to LDAUTYPE =  2
   angular momentum for each species LDAUL =     2   -1
   U (eV)           for each species LDAUU =   6.0  0.0
   J (eV)           for each species LDAUJ =   0.0  0.0
 Exchange correlation treatment:
   GGA     =    --    GGA type
   LEXCH   =     2    internal setting for exchange type
   VOSKOWN=      0    Vosko Wilk Nusair interpolation
   LHFCALC =     F    Hartree Fock is set to
   LHFONE  =     F    Hartree Fock one center treatment
   AEXX    =    0.0000 exact exchange contribution

 Linear response parameters
   LEPSILON=     F    determine dielectric tensor
   LRPA    =     F    only Hartree local field effects (RPA)
   LNABLA  =     F    use nabla operator in PAW spheres
   LVEL    =     F    velocity operator in full k-point grid
   LINTERFAST=   F  fast interpolation
   KINTER  =     0    interpolate to denser k-point grid
   CSHIFT  =0.1000    complex shift for real part using Kramers Kronig
   OMEGAMAX=  -1.0    maximum frequency
   DEG_THRESHOLD= 0.2000000E-02 threshold for treating states as degnerate
   RTIME   =    0.100 relaxation time in fs

 Orbital magnetization related:
   ORBITALMAG=     F  switch on orbital magnetization
   LCHIMAG   =     F  perturbation theory with respect to B field
   DQ        =  0.001000  dq finite difference perturbation B field



--------------------------------------------------------------------------------------------------------


 Static calculation
 charge density and potential will be updated during run
 non collinear spin polarized calculation
 Variant of blocked Davidson
 Davidson routine will perform the subspace rotation
 perform sub-space diagonalisation
    after iterative eigenvector-optimisation
 modified Broyden-mixing scheme, WC =      100.0
 initial mixing is a Kerker type mixing with AMIX =  0.4000 and BMIX =      1.0000
 Hartree-type preconditioning will be used
 using additional bands           76
 reciprocal scheme for non local part
 use partial core corrections
 calculate Harris-corrections to forces 
   (improved forces if not selfconsistent)
 use of overlap-Matrix (Vanderbilt PP)
 Fermi weights with tetrahedron method with Bloechl corrections


--------------------------------------------------------------------------------------------------------


  energy-cutoff  :      420.00
  volume of cell :      163.49
      direct lattice vectors                 reciprocal lattice vectors
     5.467999935  0.000000000  0.000000000     0.182882226  0.000000000  0.000000000
     0.000000000  5.467999935  0.000000000     0.000000000  0.182882226  0.000000000
     0.000000000  0.000000000  5.467999935     0.000000000  0.000000000  0.182882226

  length of vectors
     5.467999935  5.467999935  5.467999935     0.182882226  0.182882226  0.182882226


 
 k-points in units of 2pi/SCALE and weight: Monkhost Pack                           
   0.01524019  0.01524019  0.01524019       0.005
   0.04572056  0.01524019  0.01524019       0.005
   0.07620093  0.01524019  0.01524019       0.005
  -0.07620093  0.01524019  0.01524019       0.005
  -0.04572056  0.01524019  0.01524019       0.005
  -0.01524019  0.01524019  0.01524019       0.005
   0.01524019  0.04572056  0.01524019       0.005
   0.04572056  0.04572056  0.01524019       0.005
   0.07620093  0.04572056  0.01524019       0.005
  -0.07620093  0.04572056  0.01524019       0.005
  -0.04572056  0.04572056  0.01524019       0.005
  -0.01524019  0.04572056  0.01524019       0.005
   0.01524019  0.07620093  0.01524019       0.005
   0.04572056  0.07620093  0.01524019       0.005
   0.07620093  0.07620093  0.01524019       0.005
  -0.07620093  0.07620093  0.01524019       0.005
  -0.04572056  0.07620093  0.01524019       0.005
  -0.01524019  0.07620093  0.01524019       0.005
   0.01524019 -0.07620093  0.01524019       0.005
   0.04572056 -0.07620093  0.01524019       0.005
   0.07620093 -0.07620093  0.01524019       0.005
  -0.07620093 -0.07620093  0.01524019       0.005
  -0.04572056 -0.07620093  0.01524019       0.005
  -0.01524019 -0.07620093  0.01524019       0.005
   0.01524019 -0.04572056  0.01524019       0.005
   0.04572056 -0.04572056  0.01524019       0.005
   0.07620093 -0.04572056  0.01524019       0.005
  -0.07620093 -0.04572056  0.01524019       0.005
  -0.04572056 -0.04572056  0.01524019       0.005
  -0.01524019 -0.04572056  0.01524019       0.005
   0.01524019 -0.01524019  0.01524019       0.005
   0.04572056 -0.01524019  0.01524019       0.005
   0.07620093 -0.01524019  0.01524019       0.005
  -0.07620093 -0.01524019  0.01524019       0.005
  -0.04572056 -0.01524019  0.01524019       0.005
  -0.01524019 -0.01524019  0.01524019       0.005
   0.01524019  0.01524019  0.04572056       0.005
   0.04572056  0.01524019  0.04572056       0.005
   0.07620093  0.01524019  0.04572056       0.005
  -0.07620093  0.01524019  0.04572056       0.005
  -0.04572056  0.01524019  0.04572056       0.005
  -0.01524019  0.01524019  0.04572056       0.005
   0.01524019  0.04572056  0.04572056       0.005
   0.04572056  0.04572056  0.04572056       0.005
   0.07620093  0.04572056  0.04572056       0.005
  -0.07620093  0.04572056  0.04572056       0.005
  -0.04572056  0.04572056  0.04572056       0.005
  -0.01524019  0.04572056  0.04572056       0.005
   0.01524019  0.07620093  0.04572056       0.005
   0.04572056  0.07620093  0.04572056       0.005
   0.07620093  0.07620093  0.04572056       0.005
  -0.07620093  0.07620093  0.04572056       0.005
  -0.04572056  0.07620093  0.04572056       0.005
  -0.01524019  0.07620093  0.04572056       0.005
   0.01524019 -0.07620093  0.04572056       0.005
   0.04572056 -0.07620093  0.04572056       0.005
   0.07620093 -0.07620093  0.04572056       0.005
  -0.07620093 -0.07620093  0.04572056       0.005
  -0.04572056 -0.07620093  0.04572056       0.005
  -0.01524019 -0.07620093  0.04572056       0.005
   0.01524019 -0.04572056  0.04572056       0.005
   0.04572056 -0.04572056  0.04572056       0.005
   0.07620093 -0.04572056  0.04572056       0.005
  -0.07620093 -0.04572056  0.04572056       0.005
  -0.04572056 -0.04572056  0.04572056       0.005
  -0.01524019 -0.04572056  0.04572056       0.005
   0.01524019 -0.01524019  0.04572056       0.005
   0.04572056 -0.01524019  0.04572056       0.005
   0.07620093 -0.01524019  0.04572056       0.005
  -0.07620093 -0.01524019  0.04572056       0.005
  -0.04572056 -0.01524019  0.04572056       0.005
  -0.01524019 -0.01524019  0.04572056       0.005
   0.01524019  0.01524019  0.07620093       0.005
   0.04572056  0.01524019  0.07620093       0.005
   0.07620093  0.01524019  0.07620093       0.005
  -0.07620093  0.01524019  0.07620093       0.005
  -0.04572056  0.01524019  0.07620093       0.005
  -0.01524019  0.01524019  0.07620093       0.005
   0.01524019  0.04572056  0.07620093       0.005
   0.04572056  0.04572056  0.07620093       0.005
   0.07620093  0.04572056  0.07620093       0.005
  -0.07620093  0.04572056  0.07620093       0.005
  -0.04572056  0.04572056  0.07620093       0.005
  -0.01524019  0.04572056  0.07620093       0.005
   0.01524019  0.07620093  0.07620093       0.005
   0.04572056  0.07620093  0.07620093       0.005
   0.07620093  0.07620093  0.07620093       0.005
  -0.07620093  0.07620093  0.07620093       0.005
  -0.04572056  0.07620093  0.07620093       0.005
  -0.01524019  0.07620093  0.07620093       0.005
   0.01524019 -0.07620093  0.07620093       0.005
   0.04572056 -0.07620093  0.07620093       0.005
   0.07620093 -0.07620093  0.07620093       0.005
  -0.07620093 -0.07620093  0.07620093       0.005
  -0.04572056 -0.07620093  0.07620093       0.005
  -0.01524019 -0.07620093  0.07620093       0.005
   0.01524019 -0.04572056  0.07620093       0.005
   0.04572056 -0.04572056  0.07620093       0.005
   0.07620093 -0.04572056  0.07620093       0.005
  -0.07620093 -0.04572056  0.07620093       0.005
  -0.04572056 -0.04572056  0.07620093       0.005
  -0.01524019 -0.04572056  0.07620093       0.005
   0.01524019 -0.01524019  0.07620093       0.005
   0.04572056 -0.01524019  0.07620093       0.005
   0.07620093 -0.01524019  0.07620093       0.005
  -0.07620093 -0.01524019  0.07620093       0.005
  -0.04572056 -0.01524019  0.07620093       0.005
  -0.01524019 -0.01524019  0.07620093       0.005
   0.01524019  0.01524019 -0.07620093       0.005
   0.04572056  0.01524019 -0.07620093       0.005
   0.07620093  0.01524019 -0.07620093       0.005
  -0.07620093  0.01524019 -0.07620093       0.005
  -0.04572056  0.01524019 -0.07620093       0.005
  -0.01524019  0.01524019 -0.07620093       0.005
   0.01524019  0.04572056 -0.07620093       0.005
   0.04572056  0.04572056 -0.07620093       0.005
   0.07620093  0.04572056 -0.07620093       0.005
  -0.07620093  0.04572056 -0.07620093       0.005
  -0.04572056  0.04572056 -0.07620093       0.005
  -0.01524019  0.04572056 -0.07620093       0.005
   0.01524019  0.07620093 -0.07620093       0.005
   0.04572056  0.07620093 -0.07620093       0.005
   0.07620093  0.07620093 -0.07620093       0.005
  -0.07620093  0.07620093 -0.07620093       0.005
  -0.04572056  0.07620093 -0.07620093       0.005
  -0.01524019  0.07620093 -0.07620093       0.005
   0.01524019 -0.07620093 -0.07620093       0.005
   0.04572056 -0.07620093 -0.07620093       0.005
   0.07620093 -0.07620093 -0.07620093       0.005
  -0.07620093 -0.07620093 -0.07620093       0.005
  -0.04572056 -0.07620093 -0.07620093       0.005
  -0.01524019 -0.07620093 -0.07620093       0.005
   0.01524019 -0.04572056 -0.07620093       0.005
   0.04572056 -0.04572056 -0.07620093       0.005
   0.07620093 -0.04572056 -0.07620093       0.005
  -0.07620093 -0.04572056 -0.07620093       0.005
  -0.04572056 -0.04572056 -0.07620093       0.005
  -0.01524019 -0.04572056 -0.07620093       0.005
   0.01524019 -0.01524019 -0.07620093       0.005
   0.04572056 -0.01524019 -0.07620093       0.005
   0.07620093 -0.01524019 -0.07620093       0.005
  -0.07620093 -0.01524019 -0.07620093       0.005
  -0.04572056 -0.01524019 -0.07620093       0.005
  -0.01524019 -0.01524019 -0.07620093       0.005
   0.01524019  0.01524019 -0.04572056       0.005
   0.04572056  0.01524019 -0.04572056       0.005
   0.07620093  0.01524019 -0.04572056       0.005
  -0.07620093  0.01524019 -0.04572056       0.005
  -0.04572056  0.01524019 -0.04572056       0.005
  -0.01524019  0.01524019 -0.04572056       0.005
   0.01524019  0.04572056 -0.04572056       0.005
   0.04572056  0.04572056 -0.04572056       0.005
   0.07620093  0.04572056 -0.04572056       0.005
  -0.07620093  0.04572056 -0.04572056       0.005
  -0.04572056  0.04572056 -0.04572056       0.005
  -0.01524019  0.04572056 -0.04572056       0.005
   0.01524019  0.07620093 -0.04572056       0.005
   0.04572056  0.07620093 -0.04572056       0.005
   0.07620093  0.07620093 -0.04572056       0.005
  -0.07620093  0.07620093 -0.04572056       0.005
  -0.04572056  0.07620093 -0.04572056       0.005
  -0.01524019  0.07620093 -0.04572056       0.005
   0.01524019 -0.07620093 -0.04572056       0.005
   0.04572056 -0.07620093 -0.04572056       0.005
   0.07620093 -0.07620093 -0.04572056       0.005
  -0.07620093 -0.07620093 -0.04572056       0.005
  -0.04572056 -0.07620093 -0.04572056       0.005
  -0.01524019 -0.07620093 -0.04572056       0.005
   0.01524019 -0.04572056 -0.04572056       0.005
   0.04572056 -0.04572056 -0.04572056       0.005
   0.07620093 -0.04572056 -0.04572056       0.005
  -0.07620093 -0.04572056 -0.04572056       0.005
  -0.04572056 -0.04572056 -0.04572056       0.005
  -0.01524019 -0.04572056 -0.04572056       0.005
   0.01524019 -0.01524019 -0.04572056       0.005
   0.04572056 -0.01524019 -0.04572056       0.005
   0.07620093 -0.01524019 -0.04572056       0.005
  -0.07620093 -0.01524019 -0.04572056       0.005
  -0.04572056 -0.01524019 -0.04572056       0.005
  -0.01524019 -0.01524019 -0.04572056       0.005
   0.01524019  0.01524019 -0.01524019       0.005
   0.04572056  0.01524019 -0.01524019       0.005
   0.07620093  0.01524019 -0.01524019       0.005
  -0.07620093  0.01524019 -0.01524019       0.005
  -0.04572056  0.01524019 -0.01524019       0.005
  -0.01524019  0.01524019 -0.01524019       0.005
   0.01524019  0.04572056 -0.01524019       0.005
   0.04572056  0.04572056 -0.01524019       0.005
   0.07620093  0.04572056 -0.01524019       0.005
  -0.07620093  0.04572056 -0.01524019       0.005
  -0.04572056  0.04572056 -0.01524019       0.005
  -0.01524019  0.04572056 -0.01524019       0.005
   0.01524019  0.07620093 -0.01524019       0.005
   0.04572056  0.07620093 -0.01524019       0.005
   0.07620093  0.07620093 -0.01524019       0.005
  -0.07620093  0.07620093 -0.01524019       0.005
  -0.04572056  0.07620093 -0.01524019       0.005
  -0.01524019  0.07620093 -0.01524019       0.005
   0.01524019 -0.07620093 -0.01524019       0.005
   0.04572056 -0.07620093 -0.01524019       0.005
   0.07620093 -0.07620093 -0.01524019       0.005
  -0.07620093 -0.07620093 -0.01524019       0.005
  -0.04572056 -0.07620093 -0.01524019       0.005
  -0.01524019 -0.07620093 -0.01524019       0.005
   0.01524019 -0.04572056 -0.01524019       0.005
   0.04572056 -0.04572056 -0.01524019       0.005
   0.07620093 -0.04572056 -0.01524019       0.005
  -0.07620093 -0.04572056 -0.01524019       0.005
  -0.04572056 -0.04572056 -0.01524019       0.005
  -0.01524019 -0.04572056 -0.01524019       0.005
   0.01524019 -0.01524019 -0.01524019       0.005
   0.04572056 -0.01524019 -0.01524019       0.005
   0.07620093 -0.01524019 -0.01524019       0.005
  -0.07620093 -0.01524019 -0.01524019       0.005
  -0.04572056 -0.01524019 -0.01524019       0.005
  -0.01524019 -0.01524019 -0.01524019       0.005
 
 k-points in reciprocal lattice and weights: Monkhost Pack                           
   0.08333333  0.08333333  0.08333333       0.005
   0.25000000  0.08333333  0.08333333       0.005
   0.41666667  0.08333333  0.08333333       0.005
  -0.41666667  0.08333333  0.08333333       0.005
  -0.25000000  0.08333333  0.08333333       0.005
  -0.08333333  0.08333333  0.08333333       0.005
   0.08333333  0.25000000  0.08333333       0.005
   0.25000000  0.25000000  0.08333333       0.005
   0.41666667  0.25000000  0.08333333       0.005
  -0.41666667  0.25000000  0.08333333       0.005
  -0.25000000  0.25000000  0.08333333       0.005
  -0.08333333  0.25000000  0.08333333       0.005
   0.08333333  0.41666667  0.08333333       0.005
   0.25000000  0.41666667  0.08333333       0.005
   0.41666667  0.41666667  0.08333333       0.005
  -0.41666667  0.41666667  0.08333333       0.005
  -0.25000000  0.41666667  0.08333333       0.005
  -0.08333333  0.41666667  0.08333333       0.005
   0.08333333 -0.41666667  0.08333333       0.005
   0.25000000 -0.41666667  0.08333333       0.005
   0.41666667 -0.41666667  0.08333333       0.005
  -0.41666667 -0.41666667  0.08333333       0.005
  -0.25000000 -0.41666667  0.08333333       0.005
  -0.08333333 -0.41666667  0.08333333       0.005
   0.08333333 -0.25000000  0.08333333       0.005
   0.25000000 -0.25000000  0.08333333       0.005
   0.41666667 -0.25000000  0.08333333       0.005
  -0.41666667 -0.25000000  0.08333333       0.005
  -0.25000000 -0.25000000  0.08333333       0.005
  -0.08333333 -0.25000000  0.08333333       0.005
   0.08333333 -0.08333333  0.08333333       0.005
   0.25000000 -0.08333333  0.08333333       0.005
   0.41666667 -0.08333333  0.08333333       0.005
  -0.41666667 -0.08333333  0.08333333       0.005
  -0.25000000 -0.08333333  0.08333333       0.005
  -0.08333333 -0.08333333  0.08333333       0.005
   0.08333333  0.08333333  0.25000000       0.005
   0.25000000  0.08333333  0.25000000       0.005
   0.41666667  0.08333333  0.25000000       0.005
  -0.41666667  0.08333333  0.25000000       0.005
  -0.25000000  0.08333333  0.25000000       0.005
  -0.08333333  0.08333333  0.25000000       0.005
   0.08333333  0.25000000  0.25000000       0.005
   0.25000000  0.25000000  0.25000000       0.005
   0.41666667  0.25000000  0.25000000       0.005
  -0.41666667  0.25000000  0.25000000       0.005
  -0.25000000  0.25000000  0.25000000       0.005
  -0.08333333  0.25000000  0.25000000       0.005
   0.08333333  0.41666667  0.25000000       0.005
   0.25000000  0.41666667  0.25000000       0.005
   0.41666667  0.41666667  0.25000000       0.005
  -0.41666667  0.41666667  0.25000000       0.005
  -0.25000000  0.41666667  0.25000000       0.005
  -0.08333333  0.41666667  0.25000000       0.005
   0.08333333 -0.41666667  0.25000000       0.005
   0.25000000 -0.41666667  0.25000000       0.005
   0.41666667 -0.41666667  0.25000000       0.005
  -0.41666667 -0.41666667  0.25000000       0.005
  -0.25000000 -0.41666667  0.25000000       0.005
  -0.08333333 -0.41666667  0.25000000       0.005
   0.08333333 -0.25000000  0.25000000       0.005
   0.25000000 -0.25000000  0.25000000       0.005
   0.41666667 -0.25000000  0.25000000       0.005
  -0.41666667 -0.25000000  0.25000000       0.005
  -0.25000000 -0.25000000  0.25000000       0.005
  -0.08333333 -0.25000000  0.25000000       0.005
   0.08333333 -0.08333333  0.25000000       0.005
   0.25000000 -0.08333333  0.25000000       0.005
   0.41666667 -0.08333333  0.25000000       0.005
  -0.41666667 -0.08333333  0.25000000       0.005
  -0.25000000 -0.08333333  0.25000000       0.005
  -0.08333333 -0.08333333  0.25000000       0.005
   0.08333333  0.08333333  0.41666667       0.005
   0.25000000  0.08333333  0.41666667       0.005
   0.41666667  0.08333333  0.41666667       0.005
  -0.41666667  0.08333333  0.41666667       0.005
  -0.25000000  0.08333333  0.41666667       0.005
  -0.08333333  0.08333333  0.41666667       0.005
   0.08333333  0.25000000  0.41666667       0.005
   0.25000000  0.25000000  0.41666667       0.005
   0.41666667  0.25000000  0.41666667       0.005
  -0.41666667  0.25000000  0.41666667       0.005
  -0.25000000  0.25000000  0.41666667       0.005
  -0.08333333  0.25000000  0.41666667       0.005
   0.08333333  0.41666667  0.41666667       0.005
   0.25000000  0.41666667  0.41666667       0.005
   0.41666667  0.41666667  0.41666667       0.005
  -0.41666667  0.41666667  0.41666667       0.005
  -0.25000000  0.41666667  0.41666667       0.005
  -0.08333333  0.41666667  0.41666667       0.005
   0.08333333 -0.41666667  0.41666667       0.005
   0.25000000 -0.41666667  0.41666667       0.005
   0.41666667 -0.41666667  0.41666667       0.005
  -0.41666667 -0.41666667  0.41666667       0.005
  -0.25000000 -0.41666667  0.41666667       0.005
  -0.08333333 -0.41666667  0.41666667       0.005
   0.08333333 -0.25000000  0.41666667       0.005
   0.25000000 -0.25000000  0.41666667       0.005
   0.41666667 -0.25000000  0.41666667       0.005
  -0.41666667 -0.25000000  0.41666667       0.005
  -0.25000000 -0.25000000  0.41666667       0.005
  -0.08333333 -0.25000000  0.41666667       0.005
   0.08333333 -0.08333333  0.41666667       0.005
   0.25000000 -0.08333333  0.41666667       0.005
   0.41666667 -0.08333333  0.41666667       0.005
  -0.41666667 -0.08333333  0.41666667       0.005
  -0.25000000 -0.08333333  0.41666667       0.005
  -0.08333333 -0.08333333  0.41666667       0.005
   0.08333333  0.08333333 -0.41666667       0.005
   0.25000000  0.08333333 -0.41666667       0.005
   0.41666667  0.08333333 -0.41666667       0.005
  -0.41666667  0.08333333 -0.41666667       0.005
  -0.25000000  0.08333333 -0.41666667       0.005
  -0.08333333  0.08333333 -0.41666667       0.005
   0.08333333  0.25000000 -0.41666667       0.005
   0.25000000  0.25000000 -0.41666667       0.005
   0.41666667  0.25000000 -0.41666667       0.005
  -0.41666667  0.25000000 -0.41666667       0.005
  -0.25000000  0.25000000 -0.41666667       0.005
  -0.08333333  0.25000000 -0.41666667       0.005
   0.08333333  0.41666667 -0.41666667       0.005
   0.25000000  0.41666667 -0.41666667       0.005
   0.41666667  0.41666667 -0.41666667       0.005
  -0.41666667  0.41666667 -0.41666667       0.005
  -0.25000000  0.41666667 -0.41666667       0.005
  -0.08333333  0.41666667 -0.41666667       0.005
   0.08333333 -0.41666667 -0.41666667       0.005
   0.25000000 -0.41666667 -0.41666667       0.005
   0.41666667 -0.41666667 -0.41666667       0.005
  -0.41666667 -0.41666667 -0.41666667       0.005
  -0.25000000 -0.41666667 -0.41666667       0.005
  -0.08333333 -0.41666667 -0.41666667       0.005
   0.08333333 -0.25000000 -0.41666667       0.005
   0.25000000 -0.25000000 -0.41666667       0.005
   0.41666667 -0.25000000 -0.41666667       0.005
  -0.41666667 -0.25000000 -0.41666667       0.005
  -0.25000000 -0.25000000 -0.41666667       0.005
  -0.08333333 -0.25000000 -0.41666667       0.005
   0.08333333 -0.08333333 -0.41666667       0.005
   0.25000000 -0.08333333 -0.41666667       0.005
   0.41666667 -0.08333333 -0.41666667       0.005
  -0.41666667 -0.08333333 -0.41666667       0.005
  -0.25000000 -0.08333333 -0.41666667       0.005
  -0.08333333 -0.08333333 -0.41666667       0.005
   0.08333333  0.08333333 -0.25000000       0.005
   0.25000000  0.08333333 -0.25000000       0.005
   0.41666667  0.08333333 -0.25000000       0.005
  -0.41666667  0.08333333 -0.25000000       0.005
  -0.25000000  0.08333333 -0.25000000       0.005
  -0.08333333  0.08333333 -0.25000000       0.005
   0.08333333  0.25000000 -0.25000000       0.005
   0.25000000  0.25000000 -0.25000000       0.005
   0.41666667  0.25000000 -0.25000000       0.005
  -0.41666667  0.25000000 -0.25000000       0.005
  -0.25000000  0.25000000 -0.25000000       0.005
  -0.08333333  0.25000000 -0.25000000       0.005
   0.08333333  0.41666667 -0.25000000       0.005
   0.25000000  0.41666667 -0.25000000       0.005
   0.41666667  0.41666667 -0.25000000       0.005
  -0.41666667  0.41666667 -0.25000000       0.005
  -0.25000000  0.41666667 -0.25000000       0.005
  -0.08333333  0.41666667 -0.25000000       0.005
   0.08333333 -0.41666667 -0.25000000       0.005
   0.25000000 -0.41666667 -0.25000000       0.005
   0.41666667 -0.41666667 -0.25000000       0.005
  -0.41666667 -0.41666667 -0.25000000       0.005
  -0.25000000 -0.41666667 -0.25000000       0.005
  -0.08333333 -0.41666667 -0.25000000       0.005
   0.08333333 -0.25000000 -0.25000000       0.005
   0.25000000 -0.25000000 -0.25000000       0.005
   0.41666667 -0.25000000 -0.25000000       0.005
  -0.41666667 -0.25000000 -0.25000000       0.005
  -0.25000000 -0.25000000 -0.25000000       0.005
  -0.08333333 -0.25000000 -0.25000000       0.005
   0.08333333 -0.08333333 -0.25000000       0.005
   0.25000000 -0.08333333 -0.25000000       0.005
   0.41666667 -0.08333333 -0.25000000       0.005
  -0.41666667 -0.08333333 -0.25000000       0.005
  -0.25000000 -0.08333333 -0.25000000       0.005
  -0.08333333 -0.08333333 -0.25000000       0.005
   0.08333333  0.08333333 -0.08333333       0.005
   0.25000000  0.08333333 -0.08333333       0.005
   0.41666667  0.08333333 -0.08333333       0.005
  -0.41666667  0.08333333 -0.08333333       0.005
  -0.25000000  0.08333333 -0.08333333       0.005
  -0.08333333  0.08333333 -0.08333333       0.005
   0.08333333  0.25000000 -0.08333333       0.005
   0.25000000  0.25000000 -0.08333333       0.005
   0.41666667  0.25000000 -0.08333333       0.005
  -0.41666667  0.25000000 -0.08333333       0.005
  -0.25000000  0.25000000 -0.08333333       0.005
  -0.08333333  0.25000000 -0.08333333       0.005
   0.08333333  0.41666667 -0.08333333       0.005
   0.25000000  0.41666667 -0.08333333       0.005
   0.41666667  0.41666667 -0.08333333       0.005
  -0.41666667  0.41666667 -0.08333333       0.005
  -0.25000000  0.41666667 -0.08333333       0.005
  -0.08333333  0.41666667 -0.08333333       0.005
   0.08333333 -0.41666667 -0.08333333       0.005
   0.25000000 -0.41666667 -0.08333333       0.005
   0.41666667 -0.41666667 -0.08333333       0.005
  -0.41666667 -0.41666667 -0.08333333       0.005
  -0.25000000 -0.41666667 -0.08333333       0.005
  -0.08333333 -0.41666667 -0.08333333       0.005
   0.08333333 -0.25000000 -0.08333333       0.005
   0.25000000 -0.25000000 -0.08333333       0.005
   0.41666667 -0.25000000 -0.08333333       0.005
  -0.41666667 -0.25000000 -0.08333333       0.005
  -0.25000000 -0.25000000 -0.08333333       0.005
  -0.08333333 -0.25000000 -0.08333333       0.005
   0.08333333 -0.08333333 -0.08333333       0.005
   0.25000000 -0.08333333 -0.08333333       0.005
   0.41666667 -0.08333333 -0.08333333       0.005
  -0.41666667 -0.08333333 -0.08333333       0.005
  -0.25000000 -0.08333333 -0.08333333       0.005
  -0.08333333 -0.08333333 -0.08333333       0.005
 
 position of ions in fractional coordinates (direct lattice) 
   0.00000000  0.00000000  0.00000000
   0.00000000  0.50000000  0.50000000
   0.50000000  0.00000000  0.50000000
   0.50000000  0.50000000  0.00000000
   0.25000000  0.25000000  0.25000000
   0.75000000  0.75000000  0.75000000
   0.75000000  0.75000000  0.25000000
   0.25000000  0.25000000  0.75000000
   0.75000000  0.25000000  0.75000000
   0.25000000  0.75000000  0.25000000
   0.25000000  0.75000000  0.75000000
   0.75000000  0.25000000  0.25000000
 
 position of ions in cartesian coordinates  (Angst):
   0.00000000  0.00000000  0.00000000
   0.00000000  2.73399997  2.73399997
   2.73399997  0.00000000  2.73399997
   2.73399997  2.73399997  0.00000000
   1.36699998  1.36699998  1.36699998
   4.10099995  4.10099995  4.10099995
   4.10099995  4.10099995  1.36699998
   1.36699998  1.36699998  4.10099995
   4.10099995  1.36699998  4.10099995
   1.36699998  4.10099995  1.36699998
   1.36699998  4.10099995  4.10099995
   4.10099995  1.36699998  1.36699998
 
 Euler angles ALPHA=     0.0000000  BETA=     0.0000000

 transformation matrix from SAXIS to cartesian coordinates
 ---------------------------------------------------------
     1.0000000 m_x     0.0000000 m_y     0.0000000 m_z
     0.0000000 m_x     1.0000000 m_y     0.0000000 m_z
     0.0000000 m_x     0.0000000 m_y     1.0000000 m_z

 transformation matrix from cartesian coordinates to SAXIS
 ---------------------------------------------------------
     1.0000000 m_x     0.0000000 m_y     0.0000000 m_z
     0.0000000 m_x     1.0000000 m_y     0.0000000 m_z
     0.0000000 m_x     0.0000000 m_y     1.0000000 m_z




--------------------------------------------------------------------------------------------------------


 k-point  1 :   0.0833 0.0833 0.0833  plane waves:    6358
 k-point  2 :   0.2500 0.0833 0.0833  plane waves:    6354
 k-point  3 :   0.4167 0.0833 0.0833  plane waves:    6396
 k-point  4 :  -0.4167 0.0833 0.0833  plane waves:    6396
 k-point  5 :  -0.2500 0.0833 0.0833  plane waves:    6354
 k-point  6 :  -0.0833 0.0833 0.0833  plane waves:    6358
 k-point  7 :   0.0833 0.2500 0.0833  plane waves:    6354
 k-point  8 :   0.2500 0.2500 0.0833  plane waves:    6394
 k-point  9 :   0.4167 0.2500 0.0833  plane waves:    6418
 k-point 10 :  -0.4167 0.2500 0.0833  plane waves:    6418
 k-point 11 :  -0.2500 0.2500 0.0833  plane waves:    6394
 k-point 12 :  -0.0833 0.2500 0.0833  plane waves:    6354
 k-point 13 :   0.0833 0.4167 0.0833  plane waves:    6396
 k-point 14 :   0.2500 0.4167 0.0833  plane waves:    6418
 k-point 15 :   0.4167 0.4167 0.0833  plane waves:    6386
 k-point 16 :  -0.4167 0.4167 0.0833  plane waves:    6386
 k-point 17 :  -0.2500 0.4167 0.0833  plane waves:    6418
 k-point 18 :  -0.0833 0.4167 0.0833  plane waves:    6396
 k-point 19 :   0.0833-0.4167 0.0833  plane waves:    6396
 k-point 20 :   0.2500-0.4167 0.0833  plane waves:    6418
 k-point 21 :   0.4167-0.4167 0.0833  plane waves:    6386
 k-point 22 :  -0.4167-0.4167 0.0833  plane waves:    6386
 k-point 23 :  -0.2500-0.4167 0.0833  plane waves:    6418
 k-point 24 :  -0.0833-0.4167 0.0833  plane waves:    6396
 k-point 25 :   0.0833-0.2500 0.0833  plane waves:    6354
 k-point 26 :   0.2500-0.2500 0.0833  plane waves:    6394
 k-point 27 :   0.4167-0.2500 0.0833  plane waves:    6418
 k-point 28 :  -0.4167-0.2500 0.0833  plane waves:    6418
 k-point 29 :  -0.2500-0.2500 0.0833  plane waves:    6394
 k-point 30 :  -0.0833-0.2500 0.0833  plane waves:    6354
 k-point 31 :   0.0833-0.0833 0.0833  plane waves:    6358
 k-point 32 :   0.2500-0.0833 0.0833  plane waves:    6354
 k-point 33 :   0.4167-0.0833 0.0833  plane waves:    6396
 k-point 34 :  -0.4167-0.0833 0.0833  plane waves:    6396
 k-point 35 :  -0.2500-0.0833 0.0833  plane waves:    6354
 k-point 36 :  -0.0833-0.0833 0.0833  plane waves:    6358
 k-point 37 :   0.0833 0.0833 0.2500  plane waves:    6354
 k-point 38 :   0.2500 0.0833 0.2500  plane waves:    6394
 k-point 39 :   0.4167 0.0833 0.2500  plane waves:    6418
 k-point 40 :  -0.4167 0.0833 0.2500  plane waves:    6418
 k-point 41 :  -0.2500 0.0833 0.2500  plane waves:    6394
 k-point 42 :  -0.0833 0.0833 0.2500  plane waves:    6354
 k-point 43 :   0.0833 0.2500 0.2500  plane waves:    6394
 k-point 44 :   0.2500 0.2500 0.2500  plane waves:    6394
 k-point 45 :   0.4167 0.2500 0.2500  plane waves:    6404
 k-point 46 :  -0.4167 0.2500 0.2500  plane waves:    6404
 k-point 47 :  -0.2500 0.2500 0.2500  plane waves:    6394
 k-point 48 :  -0.0833 0.2500 0.2500  plane waves:    6394
 k-point 49 :   0.0833 0.4167 0.2500  plane waves:    6418
 k-point 50 :   0.2500 0.4167 0.2500  plane waves:    6404
 k-point 51 :   0.4167 0.4167 0.2500  plane waves:    6408
 k-point 52 :  -0.4167 0.4167 0.2500  plane waves:    6408
 k-point 53 :  -0.2500 0.4167 0.2500  plane waves:    6404
 k-point 54 :  -0.0833 0.4167 0.2500  plane waves:    6418
 k-point 55 :   0.0833-0.4167 0.2500  plane waves:    6418
 k-point 56 :   0.2500-0.4167 0.2500  plane waves:    6404
 k-point 57 :   0.4167-0.4167 0.2500  plane waves:    6408
 k-point 58 :  -0.4167-0.4167 0.2500  plane waves:    6408
 k-point 59 :  -0.2500-0.4167 0.2500  plane waves:    6404
 k-point 60 :  -0.0833-0.4167 0.2500  plane waves:    6418
 k-point 61 :   0.0833-0.2500 0.2500  plane waves:    6394
 k-point 62 :   0.2500-0.2500 0.2500  plane waves:    6394
 k-point 63 :   0.4167-0.2500 0.2500  plane waves:    6404
 k-point 64 :  -0.4167-0.2500 0.2500  plane waves:    6404
 k-point 65 :  -0.2500-0.2500 0.2500  plane waves:    6394
 k-point 66 :  -0.0833-0.2500 0.2500  plane waves:    6394
 k-point 67 :   0.0833-0.0833 0.2500  plane waves:    6354
 k-point 68 :   0.2500-0.0833 0.2500  plane waves:    6394
 k-point 69 :   0.4167-0.0833 0.2500  plane waves:    6418
 k-point 70 :  -0.4167-0.0833 0.2500  plane waves:    6418
 k-point 71 :  -0.2500-0.0833 0.2500  plane waves:    6394
 k-point 72 :  -0.0833-0.0833 0.2500  plane waves:    6354
 k-point 73 :   0.0833 0.0833 0.4167  plane waves:    6396
 k-point 74 :   0.2500 0.0833 0.4167  plane waves:    6418
 k-point 75 :   0.4167 0.0833 0.4167  plane waves:    6386
 k-point 76 :  -0.4167 0.0833 0.4167  plane waves:    6386
 k-point 77 :  -0.2500 0.0833 0.4167  plane waves:    6418
 k-point 78 :  -0.0833 0.0833 0.4167  plane waves:    6396
 k-point 79 :   0.0833 0.2500 0.4167  plane waves:    6418
 k-point 80 :   0.2500 0.2500 0.4167  plane waves:    6404
 k-point 81 :   0.4167 0.2500 0.4167  plane waves:    6408
 k-point 82 :  -0.4167 0.2500 0.4167  plane waves:    6408
 k-point 83 :  -0.2500 0.2500 0.4167  plane waves:    6404
 k-point 84 :  -0.0833 0.2500 0.4167  plane waves:    6418
 k-point 85 :   0.0833 0.4167 0.4167  plane waves:    6386
 k-point 86 :   0.2500 0.4167 0.4167  plane waves:    6408
 k-point 87 :   0.4167 0.4167 0.4167  plane waves:    6392
 k-point 88 :  -0.4167 0.4167 0.4167  plane waves:    6392
 k-point 89 :  -0.2500 0.4167 0.4167  plane waves:    6408
 k-point 90 :  -0.0833 0.4167 0.4167  plane waves:    6386
 k-point 91 :   0.0833-0.4167 0.4167  plane waves:    6386
 k-point 92 :   0.2500-0.4167 0.4167  plane waves:    6408
 k-point 93 :   0.4167-0.4167 0.4167  plane waves:    6392
 k-point 94 :  -0.4167-0.4167 0.4167  plane waves:    6392
 k-point 95 :  -0.2500-0.4167 0.4167  plane waves:    6408
 k-point 96 :  -0.0833-0.4167 0.4167  plane waves:    6386
 k-point 97 :   0.0833-0.2500 0.4167  plane waves:    6418
 k-point 98 :   0.2500-0.2500 0.4167  plane waves:    6404
 k-point 99 :   0.4167-0.2500 0.4167  plane waves:    6408
 k-point ** :  -0.4167-0.2500 0.4167  plane waves:    6408
 k-point ** :  -0.2500-0.2500 0.4167  plane waves:    6404
 k-point ** :  -0.0833-0.2500 0.4167  plane waves:    6418
 k-point ** :   0.0833-0.0833 0.4167  plane waves:    6396
 k-point ** :   0.2500-0.0833 0.4167  plane waves:    6418
 k-point ** :   0.4167-0.0833 0.4167  plane waves:    6386
 k-point ** :  -0.4167-0.0833 0.4167  plane waves:    6386
 k-point ** :  -0.2500-0.0833 0.4167  plane waves:    6418
 k-point ** :  -0.0833-0.0833 0.4167  plane waves:    6396
 k-point ** :   0.0833 0.0833-0.4167  plane waves:    6396
 k-point ** :   0.2500 0.0833-0.4167  plane waves:    6418
 k-point ** :   0.4167 0.0833-0.4167  plane waves:    6386
 k-point ** :  -0.4167 0.0833-0.4167  plane waves:    6386
 k-point ** :  -0.2500 0.0833-0.4167  plane waves:    6418
 k-point ** :  -0.0833 0.0833-0.4167  plane waves:    6396
 k-point ** :   0.0833 0.2500-0.4167  plane waves:    6418
 k-point ** :   0.2500 0.2500-0.4167  plane waves:    6404
 k-point ** :   0.4167 0.2500-0.4167  plane waves:    6408
 k-point ** :  -0.4167 0.2500-0.4167  plane waves:    6408
 k-point ** :  -0.2500 0.2500-0.4167  plane waves:    6404
 k-point ** :  -0.0833 0.2500-0.4167  plane waves:    6418
 k-point ** :   0.0833 0.4167-0.4167  plane waves:    6386
 k-point ** :   0.2500 0.4167-0.4167  plane waves:    6408
 k-point ** :   0.4167 0.4167-0.4167  plane waves:    6392
 k-point ** :  -0.4167 0.4167-0.4167  plane waves:    6392
 k-point ** :  -0.2500 0.4167-0.4167  plane waves:    6408
 k-point ** :  -0.0833 0.4167-0.4167  plane waves:    6386
 k-point ** :   0.0833-0.4167-0.4167  plane waves:    6386
 k-point ** :   0.2500-0.4167-0.4167  plane waves:    6408
 k-point ** :   0.4167-0.4167-0.4167  plane waves:    6392
 k-point ** :  -0.4167-0.4167-0.4167  plane waves:    6392
 k-point ** :  -0.2500-0.4167-0.4167  plane waves:    6408
 k-point ** :  -0.0833-0.4167-0.4167  plane waves:    6386
 k-point ** :   0.0833-0.2500-0.4167  plane waves:    6418
 k-point ** :   0.2500-0.2500-0.4167  plane waves:    6404
 k-point ** :   0.4167-0.2500-0.4167  plane waves:    6408
 k-point ** :  -0.4167-0.2500-0.4167  plane waves:    6408
 k-point ** :  -0.2500-0.2500-0.4167  plane waves:    6404
 k-point ** :  -0.0833-0.2500-0.4167  plane waves:    6418
 k-point ** :   0.0833-0.0833-0.4167  plane waves:    6396
 k-point ** :   0.2500-0.0833-0.4167  plane waves:    6418
 k-point ** :   0.4167-0.0833-0.4167  plane waves:    6386
 k-point ** :  -0.4167-0.0833-0.4167  plane waves:    6386
 k-point ** :  -0.2500-0.0833-0.4167  plane waves:    6418
 k-point ** :  -0.0833-0.0833-0.4167  plane waves:    6396
 k-point ** :   0.0833 0.0833-0.2500  plane waves:    6354
 k-point ** :   0.2500 0.0833-0.2500  plane waves:    6394
 k-point ** :   0.4167 0.0833-0.2500  plane waves:    6418
 k-point ** :  -0.4167 0.0833-0.2500  plane waves:    6418
 k-point ** :  -0.2500 0.0833-0.2500  plane waves:    6394
 k-point ** :  -0.0833 0.0833-0.2500  plane waves:    6354
 k-point ** :   0.0833 0.2500-0.2500  plane waves:    6394
 k-point ** :   0.2500 0.2500-0.2500  plane waves:    6394
 k-point ** :   0.4167 0.2500-0.2500  plane waves:    6404
 k-point ** :  -0.4167 0.2500-0.2500  plane waves:    6404
 k-point ** :  -0.2500 0.2500-0.2500  plane waves:    6394
 k-point ** :  -0.0833 0.2500-0.2500  plane waves:    6394
 k-point ** :   0.0833 0.4167-0.2500  plane waves:    6418
 k-point ** :   0.2500 0.4167-0.2500  plane waves:    6404
 k-point ** :   0.4167 0.4167-0.2500  plane waves:    6408
 k-point ** :  -0.4167 0.4167-0.2500  plane waves:    6408
 k-point ** :  -0.2500 0.4167-0.2500  plane waves:    6404
 k-point ** :  -0.0833 0.4167-0.2500  plane waves:    6418
 k-point ** :   0.0833-0.4167-0.2500  plane waves:    6418
 k-point ** :   0.2500-0.4167-0.2500  plane waves:    6404
 k-point ** :   0.4167-0.4167-0.2500  plane waves:    6408
 k-point ** :  -0.4167-0.4167-0.2500  plane waves:    6408
 k-point ** :  -0.2500-0.4167-0.2500  plane waves:    6404
 k-point ** :  -0.0833-0.4167-0.2500  plane waves:    6418
 k-point ** :   0.0833-0.2500-0.2500  plane waves:    6394
 k-point ** :   0.2500-0.2500-0.2500  plane waves:    6394
 k-point ** :   0.4167-0.2500-0.2500  plane waves:    6404
 k-point ** :  -0.4167-0.2500-0.2500  plane waves:    6404
 k-point ** :  -0.2500-0.2500-0.2500  plane waves:    6394
 k-point ** :  -0.0833-0.2500-0.2500  plane waves:    6394
 k-point ** :   0.0833-0.0833-0.2500  plane waves:    6354
 k-point ** :   0.2500-0.0833-0.2500  plane waves:    6394
 k-point ** :   0.4167-0.0833-0.2500  plane waves:    6418
 k-point ** :  -0.4167-0.0833-0.2500  plane waves:    6418
 k-point ** :  -0.2500-0.0833-0.2500  plane waves:    6394
 k-point ** :  -0.0833-0.0833-0.2500  plane waves:    6354
 k-point ** :   0.0833 0.0833-0.0833  plane waves:    6358
 k-point ** :   0.2500 0.0833-0.0833  plane waves:    6354
 k-point ** :   0.4167 0.0833-0.0833  plane waves:    6396
 k-point ** :  -0.4167 0.0833-0.0833  plane waves:    6396
 k-point ** :  -0.2500 0.0833-0.0833  plane waves:    6354
 k-point ** :  -0.0833 0.0833-0.0833  plane waves:    6358
 k-point ** :   0.0833 0.2500-0.0833  plane waves:    6354
 k-point ** :   0.2500 0.2500-0.0833  plane waves:    6394
 k-point ** :   0.4167 0.2500-0.0833  plane waves:    6418
 k-point ** :  -0.4167 0.2500-0.0833  plane waves:    6418
 k-point ** :  -0.2500 0.2500-0.0833  plane waves:    6394
 k-point ** :  -0.0833 0.2500-0.0833  plane waves:    6354
 k-point ** :   0.0833 0.4167-0.0833  plane waves:    6396
 k-point ** :   0.2500 0.4167-0.0833  plane waves:    6418
 k-point ** :   0.4167 0.4167-0.0833  plane waves:    6386
 k-point ** :  -0.4167 0.4167-0.0833  plane waves:    6386
 k-point ** :  -0.2500 0.4167-0.0833  plane waves:    6418
 k-point ** :  -0.0833 0.4167-0.0833  plane waves:    6396
 k-point ** :   0.0833-0.4167-0.0833  plane waves:    6396
 k-point ** :   0.2500-0.4167-0.0833  plane waves:    6418
 k-point ** :   0.4167-0.4167-0.0833  plane waves:    6386
 k-point ** :  -0.4167-0.4167-0.0833  plane waves:    6386
 k-point ** :  -0.2500-0.4167-0.0833  plane waves:    6418
 k-point ** :  -0.0833-0.4167-0.0833  plane waves:    6396
 k-point ** :   0.0833-0.2500-0.0833  plane waves:    6354
 k-point ** :   0.2500-0.2500-0.0833  plane waves:    6394
 k-point ** :   0.4167-0.2500-0.0833  plane waves:    6418
 k-point ** :  -0.4167-0.2500-0.0833  plane waves:    6418
 k-point ** :  -0.2500-0.2500-0.0833  plane waves:    6394
 k-point ** :  -0.0833-0.2500-0.0833  plane waves:    6354
 k-point ** :   0.0833-0.0833-0.0833  plane waves:    6358
 k-point ** :   0.2500-0.0833-0.0833  plane waves:    6354
 k-point ** :   0.4167-0.0833-0.0833  plane waves:    6396
 k-point ** :  -0.4167-0.0833-0.0833  plane waves:    6396
 k-point ** :  -0.2500-0.0833-0.0833  plane waves:    6354
 k-point ** :  -0.0833-0.0833-0.0833  plane waves:    6358

 maximum and minimum number of plane-waves per node :      3244     3152

 maximum number of plane-waves:      6418
 maximum index in each direction: 
   IXMAX=    9   IYMAX=    9   IZMAX=    9
   IXMIN=   -9   IYMIN=   -9   IZMIN=   -9

 NGX is ok and might be reduce to  38
 NGY is ok and might be reduce to  38
 NGZ is ok and might be reduce to  38

 parallel 3D FFT for wavefunctions:
    minimum data exchange during FFTs selected (reduces bandwidth)
 parallel 3D FFT for charge:
    minimum data exchange during FFTs selected (reduces bandwidth)


 total amount of memory used by VASP on root node   416319. kBytes
========================================================================

   base      :      30000. kBytes
   nonl-proj :     179913. kBytes
   fftplans  :       3233. kBytes
   grid      :      11776. kBytes
   one-center:       1179. kBytes
   wavefun   :     190218. kBytes
 
 Broyden mixing: mesh for mixing (old mesh)
   NGX = 19   NGY = 19   NGZ = 19
  (NGX  = 80   NGY  = 80   NGZ  = 80)
  gives a total of   6859 points

 initial charge density was supplied:
 charge density of overlapping atoms calculated
 number of electron     104.0000000 magnetization       0.0000000      0.0000000      0.0000000
 keeping initial charge density in first step


--------------------------------------------------------------------------------------------------------


 Maximum index for augmentation-charges         1554 (set IRDMAX)


--------------------------------------------------------------------------------------------------------


 First call to EWALD:  gamma=   0.324
 Maximum number of real-space cells 3x 3x 3
 Maximum number of reciprocal cells 3x 3x 3

 FEWALD executed in parallel
    FEWALD:  cpu time    0.00: real time    0.00


----------------------------------------- Iteration    1(   1)  ---------------------------------------


    POTLOK:  cpu time    0.06: real time    0.06
    SETDIJ:  cpu time    1.12: real time    1.13
     EDDAV:  cpu time   93.20: real time   93.64
 BZINTS: Fermi energy: 22.874082;104.000000 electrons
         Band energy: 993.666298;  BLOECHL correction: -0.033313
       DOS:  cpu time    0.34: real time    0.34
    --------------------------------------------
      LOOP:  cpu time   94.72: real time   95.17

 eigenvalue-minimisations  : 55296
 total energy-change (2. order) : 0.1382333E+04  (-0.3962895E+04)
 number of electron     104.0000000 magnetization       0.0000000      0.0000000      0.0000000
 augmentation part      104.0000000 magnetization       0.0000000      0.0000000      0.0000000

 Free energy of the ion-electron system (eV)
  ---------------------------------------------------
  alpha Z        PSCENC =       606.07313416
  Ewald energy   TEWEN  =     -8304.12870482
  -1/2 Hartree   DENC   =     -1426.84411866
  -exchange  EXHF       =         0.00000000
  -V(xc)+E(xc)   XCENC  =       369.32488039
  PAW double counting   =      5611.29020578    -5556.91947216
  entropy T*S    EENTRO =         0.00000000
  eigenvalues    EBANDS =       993.66629813
  atomic energy  EATOM  =      9089.87062108
  ---------------------------------------------------
  free energy    TOTEN  =      1382.33284390 eV

  energy without entropy =     1382.33284390  energy(sigma->0) =     1382.33284390


--------------------------------------------------------------------------------------------------------




----------------------------------------- Iteration    1(   2)  ---------------------------------------


     EDDAV:  cpu time   96.39: real time   96.92
 BZINTS: Fermi energy: 11.290711;104.000000 electrons
         Band energy:-138.458653;  BLOECHL correction: -0.014903
       DOS:  cpu time    0.34: real time    0.34
    --------------------------------------------
      LOOP:  cpu time   96.73: real time   97.26

 eigenvalue-minimisations  : 58784
 total energy-change (2. order) :-0.1132125E+04  (-0.1052088E+04)
 number of electron     104.0000000 magnetization       0.0000000      0.0000000      0.0000000
 augmentation part      104.0000000 magnetization       0.0000000      0.0000000      0.0000000

 Free energy of the ion-electron system (eV)
  ---------------------------------------------------
  alpha Z        PSCENC =       606.07313416
  Ewald energy   TEWEN  =     -8304.12870482
  -1/2 Hartree   DENC   =     -1426.84411866
  -exchange  EXHF       =         0.00000000
  -V(xc)+E(xc)   XCENC  =       369.32488039
  PAW double counting   =      5611.29020578    -5556.91947216
  entropy T*S    EENTRO =         0.00000000
  eigenvalues    EBANDS =      -138.45865292
  atomic energy  EATOM  =      9089.87062108
  ---------------------------------------------------
  free energy    TOTEN  =       250.20789285 eV

  energy without entropy =      250.20789285  energy(sigma->0) =      250.20789285


--------------------------------------------------------------------------------------------------------




----------------------------------------- Iteration    1(   3)  ---------------------------------------


     EDDAV:  cpu time  107.16: real time  107.63
 BZINTS: Fermi energy:  9.616352;104.000000 electrons
         Band energy:-471.878369;  BLOECHL correction: -0.004772
       DOS:  cpu time    0.35: real time    0.36
    --------------------------------------------
      LOOP:  cpu time  107.51: real time  108.01

 eigenvalue-minimisations  : 71880
 total energy-change (2. order) :-0.3334197E+03  (-0.3183637E+03)
 number of electron     104.0000000 magnetization       0.0000000      0.0000000      0.0000000
 augmentation part      104.0000000 magnetization       0.0000000      0.0000000      0.0000000

 Free energy of the ion-electron system (eV)
  ---------------------------------------------------
  alpha Z        PSCENC =       606.07313416
  Ewald energy   TEWEN  =     -8304.12870482
  -1/2 Hartree   DENC   =     -1426.84411866
  -exchange  EXHF       =         0.00000000
  -V(xc)+E(xc)   XCENC  =       369.32488039
  PAW double counting   =      5611.29020578    -5556.91947216
  entropy T*S    EENTRO =         0.00000000
  eigenvalues    EBANDS =      -471.87836941
  atomic energy  EATOM  =      9089.87062108
  ---------------------------------------------------
  free energy    TOTEN  =       -83.21182365 eV

  energy without entropy =      -83.21182365  energy(sigma->0) =      -83.21182365


[...]
  6        -0.002   0.000   0.000  -0.002
  7         0.002   0.000   0.000   0.002
  8         0.002   0.000   0.000   0.002
  9         0.002   0.000   0.000   0.002
 10         0.002   0.000   0.000   0.002
 11        -0.002   0.000   0.000  -0.002
 12        -0.002   0.000   0.000  -0.002
 ------------------------------------------------
            0.000   0.000  -0.050  -0.050

 Spin-Orbit-Coupling matrix elements

 Ion:    1  E_soc:     -6.2754995
 l=   1
     0.0000000    -0.8963823    -0.8963492
    -0.8963823     0.0000000    -0.8963543
    -0.8963492    -0.8963543     0.0000000
 l=   2
     0.0000000    -0.0010930     0.0000000    -0.0010934    -0.0038569
    -0.0010930     0.0000000    -0.0028987    -0.0010932    -0.0009599
     0.0000000    -0.0028987     0.0000000    -0.0028907     0.0000000
    -0.0010934    -0.0010932    -0.0028907     0.0000000    -0.0009683
    -0.0038569    -0.0009599     0.0000000    -0.0009683     0.0000000
 l=   3
     0.0000000    -0.0064574     0.0000000     0.0000000     0.0000000    -0.0248548    -0.1109620
    -0.0064574     0.0000000    -0.0109865     0.0000000    -0.0107411    -0.0173655    -0.0066774
     0.0000000    -0.0109865     0.0000000    -0.0792075    -0.0167169    -0.0224061     0.0000000
     0.0000000     0.0000000    -0.0792075     0.0000000    -0.0805265     0.0000000     0.0000000
     0.0000000    -0.0107411    -0.0167169    -0.0805265     0.0000000    -0.0223336     0.0000000
    -0.0248548    -0.0173655    -0.0224061     0.0000000    -0.0223336     0.0000000    -0.0245744
    -0.1109620    -0.0066774     0.0000000     0.0000000     0.0000000    -0.0245744     0.0000000

 Ion:    2  E_soc:     -6.2764421
 l=   1
     0.0000000    -0.8963790    -0.8963459
    -0.8963790     0.0000000    -0.8963548
    -0.8963459    -0.8963548     0.0000000
 l=   2
     0.0000000    -0.0010934     0.0000000    -0.0010938    -0.0038559
    -0.0010934     0.0000000    -0.0028980    -0.0010932    -0.0009601
     0.0000000    -0.0028980     0.0000000    -0.0028903     0.0000000
    -0.0010938    -0.0010932    -0.0028903     0.0000000    -0.0009679
    -0.0038559    -0.0009601     0.0000000    -0.0009679     0.0000000
 l=   3
     0.0000000    -0.0064266     0.0000000     0.0000000     0.0000000    -0.0249435    -0.1109229
    -0.0064266     0.0000000    -0.0109521     0.0000000    -0.0107267    -0.0173444    -0.0066685
     0.0000000    -0.0109521     0.0000000    -0.0794040    -0.0167544    -0.0224430     0.0000000
     0.0000000     0.0000000    -0.0794040     0.0000000    -0.0806610     0.0000000     0.0000000
     0.0000000    -0.0107267    -0.0167544    -0.0806610     0.0000000    -0.0224083     0.0000000
    -0.0249435    -0.0173444    -0.0224430     0.0000000    -0.0224083     0.0000000    -0.0246334
    -0.1109229    -0.0066685     0.0000000     0.0000000     0.0000000    -0.0246334     0.0000000

 Ion:    3  E_soc:     -6.2771426
 l=   1
     0.0000000    -0.8963661    -0.8963407
    -0.8963661     0.0000000    -0.8963558
    -0.8963407    -0.8963558     0.0000000
 l=   2
     0.0000000    -0.0010931     0.0000000    -0.0010937    -0.0038560
    -0.0010931     0.0000000    -0.0028982    -0.0010934    -0.0009598
     0.0000000    -0.0028982     0.0000000    -0.0028884     0.0000000
    -0.0010937    -0.0010934    -0.0028884     0.0000000    -0.0009695
    -0.0038560    -0.0009598     0.0000000    -0.0009695     0.0000000
 l=   3
     0.0000000    -0.0064743     0.0000000     0.0000000     0.0000000    -0.0248975    -0.1112694
    -0.0064743     0.0000000    -0.0109416     0.0000000    -0.0107515    -0.0174044    -0.0066873
     0.0000000    -0.0109416     0.0000000    -0.0795809    -0.0167739    -0.0225728     0.0000000
     0.0000000     0.0000000    -0.0795809     0.0000000    -0.0804168     0.0000000     0.0000000
     0.0000000    -0.0107515    -0.0167739    -0.0804168     0.0000000    -0.0222754     0.0000000
    -0.0248975    -0.0174044    -0.0225728     0.0000000    -0.0222754     0.0000000    -0.0246109
    -0.1112694    -0.0066873     0.0000000     0.0000000     0.0000000    -0.0246109     0.0000000

 Ion:    4  E_soc:     -6.2790915
 l=   1
     0.0000000    -0.8963641    -0.8963540
    -0.8963641     0.0000000    -0.8963614
    -0.8963540    -0.8963614     0.0000000
 l=   2
     0.0000000    -0.0010936     0.0000000    -0.0010946    -0.0038555
    -0.0010936     0.0000000    -0.0028982    -0.0010936    -0.0009606
     0.0000000    -0.0028982     0.0000000    -0.0028882     0.0000000
    -0.0010946    -0.0010936    -0.0028882     0.0000000    -0.0009694
    -0.0038555    -0.0009606     0.0000000    -0.0009694     0.0000000
 l=   3
     0.0000000    -0.0064515     0.0000000     0.0000000     0.0000000    -0.0250188    -0.1112137
    -0.0064515     0.0000000    -0.0109310     0.0000000    -0.0107605    -0.0173775    -0.0067027
     0.0000000    -0.0109310     0.0000000    -0.0799342    -0.0168351    -0.0227205     0.0000000
     0.0000000     0.0000000    -0.0799342     0.0000000    -0.0806262     0.0000000     0.0000000
     0.0000000    -0.0107605    -0.0168351    -0.0806262     0.0000000    -0.0223512     0.0000000
    -0.0250188    -0.0173775    -0.0227205     0.0000000    -0.0223512     0.0000000    -0.0246898
    -0.1112137    -0.0067027     0.0000000     0.0000000     0.0000000    -0.0246898     0.0000000

 Ion:    5  E_soc:     -0.0010892
 l=   1
     0.0000000    -0.0001812    -0.0001816
    -0.0001812     0.0000000    -0.0001818
    -0.0001816    -0.0001818     0.0000000
 l=   2
     0.0000000     0.0000000     0.0000000     0.0000000     0.0000000
     0.0000000     0.0000000     0.0000000     0.0000000     0.0000000
     0.0000000     0.0000000     0.0000000     0.0000000     0.0000000
     0.0000000     0.0000000     0.0000000     0.0000000     0.0000000
     0.0000000     0.0000000     0.0000000     0.0000000     0.0000000
 l=   3
     0.0000000     0.0000000     0.0000000     0.0000000     0.0000000     0.0000000     0.0000000
     0.0000000     0.0000000     0.0000000     0.0000000     0.0000000     0.0000000     0.0000000
     0.0000000     0.0000000     0.0000000     0.0000000     0.0000000     0.0000000     0.0000000
     0.0000000     0.0000000     0.0000000     0.0000000     0.0000000     0.0000000     0.0000000
     0.0000000     0.0000000     0.0000000     0.0000000     0.0000000     0.0000000     0.0000000
     0.0000000     0.0000000     0.0000000     0.0000000     0.0000000     0.0000000     0.0000000
     0.0000000     0.0000000     0.0000000     0.0000000     0.0000000     0.0000000     0.0000000

 Ion:    6  E_soc:     -0.0010892
 l=   1
     0.0000000    -0.0001812    -0.0001816
    -0.0001812     0.0000000    -0.0001818
    -0.0001816    -0.0001818     0.0000000
 l=   2
     0.0000000     0.0000000     0.0000000     0.0000000     0.0000000
     0.0000000     0.0000000     0.0000000     0.0000000     0.0000000
     0.0000000     0.0000000     0.0000000     0.0000000     0.0000000
     0.0000000     0.0000000     0.0000000     0.0000000     0.0000000
     0.0000000     0.0000000     0.0000000     0.0000000     0.0000000
 l=   3
     0.0000000     0.0000000     0.0000000     0.0000000     0.0000000     0.0000000     0.0000000
     0.0000000     0.0000000     0.0000000     0.0000000     0.0000000     0.0000000     0.0000000
     0.0000000     0.0000000     0.0000000     0.0000000     0.0000000     0.0000000     0.0000000
     0.0000000     0.0000000     0.0000000     0.0000000     0.0000000     0.0000000     0.0000000
     0.0000000     0.0000000     0.0000000     0.0000000     0.0000000     0.0000000     0.0000000
     0.0000000     0.0000000     0.0000000     0.0000000     0.0000000     0.0000000     0.0000000
     0.0000000     0.0000000     0.0000000     0.0000000     0.0000000     0.0000000     0.0000000

 Ion:    7  E_soc:     -0.0010892
 l=   1
     0.0000000    -0.0001815    -0.0001815
    -0.0001815     0.0000000    -0.0001817
    -0.0001815    -0.0001817     0.0000000
 l=   2
     0.0000000     0.0000000     0.0000000     0.0000000     0.0000000
     0.0000000     0.0000000     0.0000000     0.0000000     0.0000000
     0.0000000     0.0000000     0.0000000     0.0000000     0.0000000
     0.0000000     0.0000000     0.0000000     0.0000000     0.0000000
     0.0000000     0.0000000     0.0000000     0.0000000     0.0000000
 l=   3
     0.0000000     0.0000000     0.0000000     0.0000000     0.0000000     0.0000000     0.0000000
     0.0000000     0.0000000     0.0000000     0.0000000     0.0000000     0.0000000     0.0000000
     0.0000000     0.0000000     0.0000000     0.0000000     0.0000000     0.0000000     0.0000000
     0.0000000     0.0000000     0.0000000     0.0000000     0.0000000     0.0000000     0.0000000
     0.0000000     0.0000000     0.0000000     0.0000000     0.0000000     0.0000000     0.0000000
     0.0000000     0.0000000     0.0000000     0.0000000     0.0000000     0.0000000     0.0000000
     0.0000000     0.0000000     0.0000000     0.0000000     0.0000000     0.0000000     0.0000000

 Ion:    8  E_soc:     -0.0010892
 l=   1
     0.0000000    -0.0001815    -0.0001815
    -0.0001815     0.0000000    -0.0001817
    -0.0001815    -0.0001817     0.0000000
 l=   2
     0.0000000     0.0000000     0.0000000     0.0000000     0.0000000
     0.0000000     0.0000000     0.0000000     0.0000000     0.0000000
     0.0000000     0.0000000     0.0000000     0.0000000     0.0000000
     0.0000000     0.0000000     0.0000000     0.0000000     0.0000000
     0.0000000     0.0000000     0.0000000     0.0000000     0.0000000
 l=   3
     0.0000000     0.0000000     0.0000000     0.0000000     0.0000000     0.0000000     0.0000000
     0.0000000     0.0000000     0.0000000     0.0000000     0.0000000     0.0000000     0.0000000
     0.0000000     0.0000000     0.0000000     0.0000000     0.0000000     0.0000000     0.0000000
     0.0000000     0.0000000     0.0000000     0.0000000     0.0000000     0.0000000     0.0000000
     0.0000000     0.0000000     0.0000000     0.0000000     0.0000000     0.0000000     0.0000000
     0.0000000     0.0000000     0.0000000     0.0000000     0.0000000     0.0000000     0.0000000
     0.0000000     0.0000000     0.0000000     0.0000000     0.0000000     0.0000000     0.0000000

 Ion:    9  E_soc:     -0.0010889
 l=   1
     0.0000000    -0.0001816    -0.0001812
    -0.0001816     0.0000000    -0.0001817
    -0.0001812    -0.0001817     0.0000000
 l=   2
     0.0000000     0.0000000     0.0000000     0.0000000     0.0000000
     0.0000000     0.0000000     0.0000000     0.0000000     0.0000000
     0.0000000     0.0000000     0.0000000     0.0000000     0.0000000
     0.0000000     0.0000000     0.0000000     0.0000000     0.0000000
     0.0000000     0.0000000     0.0000000     0.0000000     0.0000000
 l=   3
     0.0000000     0.0000000     0.0000000     0.0000000     0.0000000     0.0000000     0.0000000
     0.0000000     0.0000000     0.0000000     0.0000000     0.0000000     0.0000000     0.0000000
     0.0000000     0.0000000     0.0000000     0.0000000     0.0000000     0.0000000     0.0000000
     0.0000000     0.0000000     0.0000000     0.0000000     0.0000000     0.0000000     0.0000000
     0.0000000     0.0000000     0.0000000     0.0000000     0.0000000     0.0000000     0.0000000
     0.0000000     0.0000000     0.0000000     0.0000000     0.0000000     0.0000000     0.0000000
     0.0000000     0.0000000     0.0000000     0.0000000     0.0000000     0.0000000     0.0000000

 Ion:   10  E_soc:     -0.0010889
 l=   1
     0.0000000    -0.0001816    -0.0001812
    -0.0001816     0.0000000    -0.0001817
    -0.0001812    -0.0001817     0.0000000
 l=   2
     0.0000000     0.0000000     0.0000000     0.0000000     0.0000000
     0.0000000     0.0000000     0.0000000     0.0000000     0.0000000
     0.0000000     0.0000000     0.0000000     0.0000000     0.0000000
     0.0000000     0.0000000     0.0000000     0.0000000     0.0000000
     0.0000000     0.0000000     0.0000000     0.0000000     0.0000000
 l=   3
     0.0000000     0.0000000     0.0000000     0.0000000     0.0000000     0.0000000     0.0000000
     0.0000000     0.0000000     0.0000000     0.0000000     0.0000000     0.0000000     0.0000000
     0.0000000     0.0000000     0.0000000     0.0000000     0.0000000     0.0000000     0.0000000
     0.0000000     0.0000000     0.0000000     0.0000000     0.0000000     0.0000000     0.0000000
     0.0000000     0.0000000     0.0000000     0.0000000     0.0000000     0.0000000     0.0000000
     0.0000000     0.0000000     0.0000000     0.0000000     0.0000000     0.0000000     0.0000000
     0.0000000     0.0000000     0.0000000     0.0000000     0.0000000     0.0000000     0.0000000

 Ion:   11  E_soc:     -0.0010889
 l=   1
     0.0000000    -0.0001814    -0.0001813
    -0.0001814     0.0000000    -0.0001818
    -0.0001813    -0.0001818     0.0000000
 l=   2
     0.0000000     0.0000000     0.0000000     0.0000000     0.0000000
     0.0000000     0.0000000     0.0000000     0.0000000     0.0000000
     0.0000000     0.0000000     0.0000000     0.0000000     0.0000000
     0.0000000     0.0000000     0.0000000     0.0000000     0.0000000
     0.0000000     0.0000000     0.0000000     0.0000000     0.0000000
 l=   3
     0.0000000     0.0000000     0.0000000     0.0000000     0.0000000     0.0000000     0.0000000
     0.0000000     0.0000000     0.0000000     0.0000000     0.0000000     0.0000000     0.0000000
     0.0000000     0.0000000     0.0000000     0.0000000     0.0000000     0.0000000     0.0000000
     0.0000000     0.0000000     0.0000000     0.0000000     0.0000000     0.0000000     0.0000000
     0.0000000     0.0000000     0.0000000     0.0000000     0.0000000     0.0000000     0.0000000
     0.0000000     0.0000000     0.0000000     0.0000000     0.0000000     0.0000000     0.0000000
     0.0000000     0.0000000     0.0000000     0.0000000     0.0000000     0.0000000     0.0000000

 Ion:   12  E_soc:     -0.0010889
 l=   1
     0.0000000    -0.0001814    -0.0001813
    -0.0001814     0.0000000    -0.0001818
    -0.0001813    -0.0001818     0.0000000
 l=   2
     0.0000000     0.0000000     0.0000000     0.0000000     0.0000000
     0.0000000     0.0000000     0.0000000     0.0000000     0.0000000
     0.0000000     0.0000000     0.0000000     0.0000000     0.0000000
     0.0000000     0.0000000     0.0000000     0.0000000     0.0000000
     0.0000000     0.0000000     0.0000000     0.0000000     0.0000000
 l=   3
     0.0000000     0.0000000     0.0000000     0.0000000     0.0000000     0.0000000     0.0000000
     0.0000000     0.0000000     0.0000000     0.0000000     0.0000000     0.0000000     0.0000000
     0.0000000     0.0000000     0.0000000     0.0000000     0.0000000     0.0000000     0.0000000
     0.0000000     0.0000000     0.0000000     0.0000000     0.0000000     0.0000000     0.0000000
     0.0000000     0.0000000     0.0000000     0.0000000     0.0000000     0.0000000     0.0000000
     0.0000000     0.0000000     0.0000000     0.0000000     0.0000000     0.0000000     0.0000000
     0.0000000     0.0000000     0.0000000     0.0000000     0.0000000     0.0000000     0.0000000
 


 total charge     
 
# of ion     s       p       d       f       tot
------------------------------------------------
  1        2.146   5.957   0.708   2.830  11.642
  2        2.146   5.957   0.708   2.830  11.641
  3        2.146   5.957   0.708   2.831  11.642
  4        2.146   5.957   0.708   2.832  11.643
  5        1.576   3.479   0.000   0.000   5.055
  6        1.576   3.479   0.000   0.000   5.055
  7        1.576   3.479   0.000   0.000   5.055
  8        1.576   3.479   0.000   0.000   5.055
  9        1.576   3.479   0.000   0.000   5.055
 10        1.576   3.479   0.000   0.000   5.055
 11        1.576   3.479   0.000   0.000   5.055
 12        1.576   3.479   0.000   0.000   5.055
------------------------------------------------
tot       21.192  51.662   2.832  11.324  87.009

 


 magnetization (x)
 
# of ion     s       p       d       f       tot
------------------------------------------------
  1       -0.001  -0.001  -0.004  -0.399  -0.406
  2        0.001   0.001   0.004   0.399   0.406
  3        0.001   0.001   0.004   0.409   0.416
  4       -0.002  -0.001  -0.004  -0.423  -0.429
  5       -0.000  -0.000   0.000   0.000  -0.000
  6       -0.000  -0.000   0.000   0.000  -0.000
  7        0.000   0.000   0.000   0.000   0.001
  8        0.000   0.000   0.000   0.000   0.001
  9       -0.000  -0.000   0.000   0.000  -0.000
 10       -0.000  -0.000   0.000   0.000  -0.000
 11        0.000   0.000   0.000   0.000   0.001
 12        0.000   0.000   0.000   0.000   0.001
------------------------------------------------
tot       -0.000   0.000  -0.000  -0.013  -0.013

 


 magnetization (y)
 
# of ion     s       p       d       f       tot
------------------------------------------------
  1        0.002   0.001   0.004   0.435   0.441
  2        0.002   0.001   0.004   0.435   0.442
  3       -0.001  -0.001  -0.003  -0.399  -0.405
  4       -0.001  -0.001  -0.003  -0.395  -0.401
  5        0.000   0.000   0.000   0.000   0.000
  6        0.000   0.000   0.000   0.000   0.000
  7        0.000   0.000   0.000   0.000   0.000
  8        0.000   0.000   0.000   0.000   0.000
  9       -0.000  -0.001   0.000   0.000  -0.001
 10       -0.000  -0.001   0.000   0.000  -0.001
 11       -0.000  -0.001   0.000   0.000  -0.001
 12       -0.000  -0.001   0.000   0.000  -0.001
------------------------------------------------
tot        0.000  -0.003   0.001   0.076   0.074

 


 magnetization (z)
 
# of ion     s       p       d       f       tot
------------------------------------------------
  1        0.002   0.001   0.004   0.452   0.460
  2       -0.002  -0.001  -0.004  -0.432  -0.439
  3        0.002   0.001   0.004   0.456   0.463
  4       -0.002  -0.001  -0.004  -0.423  -0.430
  5       -0.000  -0.001   0.000   0.000  -0.001
  6       -0.000  -0.001   0.000   0.000  -0.001
  7        0.000   0.000   0.000   0.000   0.000
  8        0.000   0.000   0.000   0.000   0.000
  9        0.000   0.000   0.000   0.000   0.000
 10        0.000   0.000   0.000   0.000   0.000
 11       -0.000  -0.001   0.000   0.000  -0.001
 12       -0.000  -0.001   0.000   0.000  -0.001
------------------------------------------------
tot        0.000  -0.002   0.001   0.052   0.051

 
 BZINTS: Fermi energy:  9.580369;104.000000 electrons
         Band energy:-378.721058;  BLOECHL correction: -0.001656
 BZINTS: Fermi energy:  9.580369;104.000000 electrons
         Band energy:-378.721058;  BLOECHL correction: -0.001656
 BZINTS: Fermi energy:  9.580369;104.000000 electrons
         Band energy:-378.721058;  BLOECHL correction: -0.001656
 BZINTS: Fermi energy:  9.580369;104.000000 electrons
         Band energy:-378.721058;  BLOECHL correction: -0.001656

 total amount of memory used by VASP on root node   416319. kBytes
========================================================================

   base      :      30000. kBytes
   nonl-proj :     179913. kBytes
   fftplans  :       3233. kBytes
   grid      :      11776. kBytes
   one-center:       1179. kBytes
   wavefun   :     190218. kBytes
 
  
  
 General timing and accounting informations for this job:
 ========================================================
  
                  Total CPU time used (sec):     3136.811
                            User time (sec):     3050.278
                          System time (sec):       86.533
                         Elapsed time (sec):     3354.544
  
                   Maximum memory used (kb):      829704.
                   Average memory used (kb):           0.
  
                          Minor page faults:      1371450
                          Major page faults:           46
                 Voluntary context switches:       113954
