LIO                                     
           1
     5.468000    0.000000    0.000000
     0.000000    5.468000    0.000000
     0.000000    0.000000    5.468000
   U    O 
   4   8
LIO                                     
           1
     5.468000    0.000000    0.000000
     0.000000    5.468000    0.000000
     0.000000    0.000000    5.468000
   U    O 
   4   8
Direct configuration=     1
   0.00000000  0.00000000  0.00000000
   0.00000000  0.50000000  0.50000000
   0.50000000  0.00000000  0.50000000
   0.50000000  0.50000000  0.00000000
   0.25000000  0.25000000  0.25000000
   0.75000000  0.75000000  0.75000000
   0.75000000  0.75000000  0.25000000
   0.25000000  0.25000000  0.75000000
   0.75000000  0.25000000  0.75000000
   0.25000000  0.75000000  0.25000000
   0.25000000  0.75000000  0.75000000
   0.75000000  0.25000000  0.25000000
