 vasp.5.3.2 13Sep12 (build Sep  9 2014 11:37:56) complex                        
  
 executed on             LinuxIFC date 2014.11.04  22:10:41
 running on   40 total cores
 distrk:  each k-point on   40 cores,    1 groups
 distr:  one band on NCORES_PER_BAND=   8 cores,    5 groups


--------------------------------------------------------------------------------------------------------


 INCAR:
 POTCAR:   PAW U 17Apr2000                        
 POTCAR:   PAW O 31May2000                        
 POTCAR:   PAW U 17Apr2000                        
   VRHFIN =U:  [Xe,5d,4f]                                                       
   LEXCH  = CA                                                                  
   EATOM  =  1409.7225 eV,  103.6117 Ry                                         
                                                                                
   TITEL  = PAW U 17Apr2000                                                     
   LULTRA =        F    use ultrasoft PP ?                                      
   IUNSCR =        1    unscreen: 0-lin 1-nonlin 2-no                           
   RPACOR =    2.200    partial core radius                                     
   POMASS =  238.029; ZVAL   =   14.000    mass and valenz                      
   RCORE  =    2.800    outmost cutoff radius                                   
   RWIGS  =    3.000; RWIGS  =    1.588    wigner-seitz radius (au A)           
   ENMAX  =  252.603; ENMIN  =  189.452 eV                                      
   RCLOC  =    1.811    cutoff for local pot                                    
   LCOR   =        T    correct aug charges                                     
   LPAW   =        T    paw PP                                                  
   EAUG   =  526.410                                                            
   DEXC   =     .000                                                            
   RMAX   =    2.901    core radius for proj-oper                               
   RAUG   =    1.300    factor for augmentation sphere                          
   RDEP   =    2.950    core radius for depl-charge                             
   QCUT   =   -4.309; QGAM   =    8.618    optimization parameters              
                                                                                
   Description                                                                  
     l     E      TYP  RCUT    TYP  RCUT                                        
     0   .000     23  2.600                                                     
     0   .000     23  2.600                                                     
     1   .000     23  2.500                                                     
     1  2.000     23  2.500                                                     
     2   .000     23  2.500                                                     
     2   .000     23  2.500                                                     
     3   .000     23  2.800                                                     
     3   .000     23  2.800                                                     
  local pseudopotential read in
  partial core-charges read in
  atomic valenz-charges read in
  non local Contribution for L=           0  read in
    real space projection operators read in
  non local Contribution for L=           0  read in
    real space projection operators read in
  non local Contribution for L=           1  read in
    real space projection operators read in
  non local Contribution for L=           1  read in
    real space projection operators read in
  non local Contribution for L=           2  read in
    real space projection operators read in
  non local Contribution for L=           2  read in
    real space projection operators read in
  non local Contribution for L=           3  read in
    real space projection operators read in
  non local Contribution for L=           3  read in
    real space projection operators read in
    PAW grid and wavefunctions read in
 
   number of l-projection  operators is LMAX  =           8
   number of lm-projection operators is LMMAX =          32
 
 POTCAR:   PAW O 31May2000                        
   VRHFIN =O: s2p4                                                              
   LEXCH  = CA                                                                  
   EATOM  =   431.4447 eV,   31.7103 Ry                                         
                                                                                
   TITEL  = PAW O 31May2000                                                     
   LULTRA =        F    use ultrasoft PP ?                                      
   IUNSCR =        0    unscreen: 0-lin 1-nonlin 2-no                           
   RPACOR =     .000    partial core radius                                     
   POMASS =   16.000; ZVAL   =    6.000    mass and valenz                      
   RCORE  =    1.520    outmost cutoff radius                                   
   RWIGS  =    1.550; RWIGS  =     .820    wigner-seitz radius (au A)           
   ENMAX  =  400.000; ENMIN  =  300.000 eV                                      
   ICORE  =        2    local potential                                         
   LCOR   =        T    correct aug charges                                     
   LPAW   =        T    paw PP                                                  
   EAUG   =  605.392                                                            
   DEXC   =     .000                                                            
   RMAX   =    2.265    core radius for proj-oper                               
   RAUG   =    1.300    factor for augmentation sphere                          
   RDEP   =    1.550    radius for radial grids                                 
   QCUT   =   -5.518; QGAM   =   11.037    optimization parameters              
                                                                                
   Description                                                                  
     l     E      TYP  RCUT    TYP  RCUT                                        
     0   .000     23  1.200                                                     
     0  -.700     23  1.200                                                     
     1   .000     23  1.520                                                     
     1   .600     23  1.520                                                     
     2   .000      7  1.500                                                     
  local pseudopotential read in
  atomic valenz-charges read in
  non local Contribution for L=           0  read in
    real space projection operators read in
  non local Contribution for L=           0  read in
    real space projection operators read in
  non local Contribution for L=           1  read in
    real space projection operators read in
  non local Contribution for L=           1  read in
    real space projection operators read in
    PAW grid and wavefunctions read in
 
   number of l-projection  operators is LMAX  =           4
   number of lm-projection operators is LMMAX =           8
 
 PAW U 17Apr2000                        :
 energy of atom  1       EATOM=-1409.7225
 kinetic energy error for atom=    0.0035 (will be added to EATOM!!)
 PAW O 31May2000                        :
 energy of atom  2       EATOM= -431.4447
 kinetic energy error for atom=    0.0704 (will be added to EATOM!!)
 
 
 POSCAR: U1 O2                                   
  positions in direct lattice
  No initial velocities read in
 exchange correlation table for  LEXCH =        2
   RHO(1)=    0.500       N(1)  =     2000
   RHO(2)=  100.500       N(2)  =     4000
 


--------------------------------------------------------------------------------------------------------


 ion  position               nearest neighbor table
   1  0.000  0.000  0.000-   2 2.37   2 2.37   2 2.37   2 2.37   3 2.37   3 2.37   3 2.37   3 2.37

   2  0.750  0.750  0.750-   1 2.37   1 2.37   1 2.37   1 2.37
   3  0.250  0.250  0.250-   1 2.37   1 2.37   1 2.37   1 2.37
 

IMPORTANT INFORMATION: All symmetrisations will be switched off!
NOSYMM: (Re-)initialisation of all symmetry stuff for point group C_1.

 
 
 KPOINTS: Monkhost Pack                           

Automatic generation of k-mesh.
Space group operators:
 irot       det(A)        alpha          n_x          n_y          n_z        tau_x        tau_y        tau_z
    1     1.000000     0.000000     1.000000     0.000000     0.000000     0.000000     0.000000     0.000000
 
 Subroutine IBZKPT returns following result:
 ===========================================
 
 Found    864 irreducible k-points:
 
 Following reciprocal coordinates:
            Coordinates               Weight
  0.083333  0.083333  0.083333     12.000000
 -0.083333 -0.083333 -0.083333     12.000000
  0.083333  0.000000  0.000000     12.000000
 -0.083333  0.000000  0.000000     12.000000
  0.000000  0.000000 -0.083333     12.000000
  0.000000  0.000000  0.083333     12.000000
  0.000000  0.083333  0.000000     12.000000
  0.000000 -0.083333  0.000000     12.000000
  0.250000  0.083333  0.083333     12.000000
 -0.250000 -0.083333 -0.083333     12.000000
  0.083333  0.250000  0.083333     12.000000
 -0.083333 -0.250000 -0.083333     12.000000
  0.083333  0.083333  0.250000     12.000000
 -0.083333 -0.083333 -0.250000     12.000000
  0.083333  0.000000 -0.166667     12.000000
 -0.083333  0.000000  0.166667     12.000000
  0.250000  0.166667  0.166667     12.000000
 -0.250000 -0.166667 -0.166667     12.000000
  0.083333 -0.166667  0.000000     12.000000
 -0.083333  0.166667  0.000000     12.000000
  0.000000  0.166667 -0.083333     12.000000
  0.000000 -0.166667  0.083333     12.000000
  0.166667  0.000000 -0.083333     12.000000
 -0.166667  0.000000  0.083333     12.000000
 -0.166667 -0.166667 -0.250000     12.000000
  0.166667  0.166667  0.250000     12.000000
  0.166667  0.250000  0.166667     12.000000
 -0.166667 -0.250000 -0.166667     12.000000
  0.000000  0.083333 -0.166667     12.000000
  0.000000 -0.083333  0.166667     12.000000
 -0.166667  0.083333  0.000000     12.000000
  0.166667 -0.083333  0.000000     12.000000
  0.416667  0.083333  0.083333     12.000000
 -0.416667 -0.083333 -0.083333     12.000000
  0.083333  0.416667  0.083333     12.000000
 -0.083333 -0.416667 -0.083333     12.000000
  0.083333  0.083333  0.416667     12.000000
 -0.083333 -0.083333 -0.416667     12.000000
  0.083333  0.000000 -0.333333     12.000000
 -0.083333  0.000000  0.333333     12.000000
  0.416667  0.333333  0.333333     12.000000
 -0.416667 -0.333333 -0.333333     12.000000
  0.083333 -0.333333  0.000000     12.000000
 -0.083333  0.333333  0.000000     12.000000
  0.000000  0.333333 -0.083333     12.000000
  0.000000 -0.333333  0.083333     12.000000
  0.333333  0.000000 -0.083333     12.000000
 -0.333333  0.000000  0.083333     12.000000
 -0.333333 -0.333333 -0.416667     12.000000
  0.333333  0.333333  0.416667     12.000000
  0.333333  0.416667  0.333333     12.000000
 -0.333333 -0.416667 -0.333333     12.000000
  0.000000  0.083333 -0.333333     12.000000
  0.000000 -0.083333  0.333333     12.000000
 -0.333333  0.083333  0.000000     12.000000
  0.333333 -0.083333  0.000000     12.000000
 -0.416667  0.083333  0.083333     12.000000
  0.416667 -0.083333 -0.083333     12.000000
  0.083333 -0.416667  0.083333     12.000000
 -0.083333  0.416667 -0.083333     12.000000
  0.083333  0.083333 -0.416667     12.000000
 -0.083333 -0.083333  0.416667     12.000000
  0.083333  0.000000  0.500000     12.000000
 -0.083333  0.000000  0.500000     12.000000
 -0.416667  0.500000  0.500000     12.000000
  0.416667  0.500000  0.500000     12.000000
  0.083333  0.500000  0.000000     12.000000
 -0.083333  0.500000  0.000000     12.000000
  0.000000  0.500000 -0.083333     12.000000
  0.000000  0.500000  0.083333     12.000000
  0.500000  0.000000 -0.083333     12.000000
  0.500000  0.000000  0.083333     12.000000
  0.500000  0.500000  0.416667     12.000000
  0.500000  0.500000 -0.416667     12.000000
  0.500000 -0.416667  0.500000     12.000000
  0.500000  0.416667  0.500000     12.000000
  0.000000  0.083333  0.500000     12.000000
  0.000000 -0.083333  0.500000     12.000000
  0.500000  0.083333  0.000000     12.000000
  0.500000 -0.083333  0.000000     12.000000
 -0.250000  0.083333  0.083333     12.000000
  0.250000 -0.083333 -0.083333     12.000000
  0.083333 -0.250000  0.083333     12.000000
 -0.083333  0.250000 -0.083333     12.000000
  0.083333  0.083333 -0.250000     12.000000
 -0.083333 -0.083333  0.250000     12.000000
  0.083333  0.000000  0.333333     12.000000
 -0.083333  0.000000 -0.333333     12.000000
 -0.250000 -0.333333 -0.333333     12.000000
  0.250000  0.333333  0.333333     12.000000
  0.083333  0.333333  0.000000     12.000000
 -0.083333 -0.333333  0.000000     12.000000
  0.000000 -0.333333 -0.083333     12.000000
  0.000000  0.333333  0.083333     12.000000
 -0.333333  0.000000 -0.083333     12.000000
  0.333333  0.000000  0.083333     12.000000
  0.333333  0.333333  0.250000     12.000000
 -0.333333 -0.333333 -0.250000     12.000000
 -0.333333 -0.250000 -0.333333     12.000000
  0.333333  0.250000  0.333333     12.000000
  0.000000  0.083333  0.333333     12.000000
  0.000000 -0.083333 -0.333333     12.000000
  0.333333  0.083333  0.000000     12.000000
 -0.333333 -0.083333  0.000000     12.000000
 -0.083333  0.083333  0.083333     12.000000
  0.083333 -0.083333 -0.083333     12.000000
  0.083333 -0.083333  0.083333     12.000000
 -0.083333  0.083333 -0.083333     12.000000
  0.083333  0.083333 -0.083333     12.000000
 -0.083333 -0.083333  0.083333     12.000000
  0.083333  0.000000  0.166667     12.000000
 -0.083333  0.000000 -0.166667     12.000000
 -0.083333 -0.166667 -0.166667     12.000000
  0.083333  0.166667  0.166667     12.000000
  0.083333  0.166667  0.000000     12.000000
 -0.083333 -0.166667  0.000000     12.000000
  0.000000 -0.166667 -0.083333     12.000000
  0.000000  0.166667  0.083333     12.000000
 -0.166667  0.000000 -0.083333     12.000000
  0.166667  0.000000  0.083333     12.000000
  0.166667  0.166667  0.083333     12.000000
 -0.166667 -0.166667 -0.083333     12.000000
 -0.166667 -0.083333 -0.166667     12.000000
  0.166667  0.083333  0.166667     12.000000
  0.000000  0.083333  0.166667     12.000000
  0.000000 -0.083333 -0.166667     12.000000
  0.166667  0.083333  0.000000     12.000000
 -0.166667 -0.083333  0.000000     12.000000
  0.250000  0.250000  0.083333     12.000000
 -0.250000 -0.250000 -0.083333     12.000000
  0.083333  0.250000  0.250000     12.000000
 -0.083333 -0.250000 -0.250000     12.000000
  0.250000  0.083333  0.250000     12.000000
 -0.250000 -0.083333 -0.250000     12.000000
  0.250000  0.166667  0.000000     12.000000
 -0.250000 -0.166667  0.000000     12.000000
  0.250000  0.000000  0.166667     12.000000
 -0.250000  0.000000 -0.166667     12.000000
  0.083333 -0.166667 -0.166667     12.000000
 -0.083333  0.166667  0.166667     12.000000
  0.166667  0.166667 -0.083333     12.000000
 -0.166667 -0.166667  0.083333     12.000000
  0.000000 -0.166667 -0.250000     12.000000
  0.000000  0.166667  0.250000     12.000000
 -0.166667  0.000000 -0.250000     12.000000
  0.166667  0.000000  0.250000     12.000000
  0.166667  0.250000  0.000000     12.000000
 -0.166667 -0.250000  0.000000     12.000000
 -0.166667  0.083333 -0.166667     12.000000
  0.166667 -0.083333  0.166667     12.000000
  0.000000  0.250000  0.166667     12.000000
  0.000000 -0.250000 -0.166667     12.000000
  0.416667  0.250000  0.083333     12.000000
 -0.416667 -0.250000 -0.083333     12.000000
  0.083333  0.416667  0.250000     12.000000
 -0.083333 -0.416667 -0.250000     12.000000
  0.250000  0.083333  0.416667     12.000000
 -0.250000 -0.083333 -0.416667     12.000000
  0.250000  0.166667 -0.166667     12.000000
 -0.250000 -0.166667  0.166667     12.000000
  0.416667  0.166667  0.333333     12.000000
 -0.416667 -0.166667 -0.333333     12.000000
  0.083333 -0.333333 -0.166667     12.000000
 -0.083333  0.333333  0.166667     12.000000
  0.166667  0.333333 -0.083333     12.000000
 -0.166667 -0.333333  0.083333     12.000000
  0.166667 -0.166667 -0.250000     12.000000
 -0.166667  0.166667  0.250000     12.000000
 -0.333333 -0.166667 -0.416667     12.000000
  0.333333  0.166667  0.416667     12.000000
  0.333333  0.416667  0.166667     12.000000
 -0.333333 -0.416667 -0.166667     12.000000
 -0.166667  0.083333 -0.333333     12.000000
  0.166667 -0.083333  0.333333     12.000000
 -0.166667  0.250000  0.166667     12.000000
  0.166667 -0.250000 -0.166667     12.000000
 -0.083333  0.166667  0.333333     12.000000
  0.083333 -0.166667 -0.333333     12.000000
 -0.250000  0.166667 -0.166667     12.000000
  0.250000 -0.166667  0.166667     12.000000
 -0.416667 -0.333333 -0.166667     12.000000
  0.416667  0.333333  0.166667     12.000000
  0.166667  0.333333  0.416667     12.000000
 -0.166667 -0.333333 -0.416667     12.000000
 -0.333333 -0.166667  0.083333     12.000000
  0.333333  0.166667 -0.083333     12.000000
  0.166667 -0.166667  0.250000     12.000000
 -0.166667  0.166667 -0.250000     12.000000
  0.333333 -0.083333  0.166667     12.000000
 -0.333333  0.083333 -0.166667     12.000000
 -0.166667 -0.250000  0.166667     12.000000
  0.166667  0.250000 -0.166667     12.000000
 -0.166667 -0.416667 -0.333333     12.000000
  0.166667  0.416667  0.333333     12.000000
 -0.416667 -0.083333 -0.250000     12.000000
  0.416667  0.083333  0.250000     12.000000
 -0.250000 -0.416667 -0.083333     12.000000
  0.250000  0.416667  0.083333     12.000000
 -0.083333 -0.250000 -0.416667     12.000000
  0.083333  0.250000  0.416667     12.000000
 -0.416667  0.250000  0.083333     12.000000
  0.416667 -0.250000 -0.083333     12.000000
  0.083333 -0.416667  0.250000     12.000000
 -0.083333  0.416667 -0.250000     12.000000
  0.250000  0.083333 -0.416667     12.000000
 -0.250000 -0.083333  0.416667     12.000000
  0.250000  0.166667 -0.333333     12.000000
 -0.250000 -0.166667  0.333333     12.000000
 -0.416667  0.333333  0.500000     12.000000
  0.416667 -0.333333  0.500000     12.000000
  0.083333  0.500000 -0.166667     12.000000
 -0.083333  0.500000  0.166667     12.000000
  0.166667  0.500000 -0.083333     12.000000
 -0.166667  0.500000  0.083333     12.000000
  0.333333 -0.166667 -0.250000     12.000000
 -0.333333  0.166667  0.250000     12.000000
  0.500000 -0.333333  0.416667     12.000000
  0.500000  0.333333 -0.416667     12.000000
  0.500000 -0.416667  0.333333     12.000000
  0.500000  0.416667 -0.333333     12.000000
 -0.166667  0.083333  0.500000     12.000000
  0.166667 -0.083333  0.500000     12.000000
 -0.333333  0.250000  0.166667     12.000000
  0.333333 -0.250000 -0.166667     12.000000
 -0.083333  0.166667  0.500000     12.000000
  0.083333 -0.166667  0.500000     12.000000
 -0.250000  0.333333 -0.166667     12.000000
  0.250000 -0.333333  0.166667     12.000000
  0.416667  0.500000 -0.333333     12.000000
 -0.416667  0.500000  0.333333     12.000000
  0.333333  0.500000 -0.416667     12.000000
 -0.333333  0.500000  0.416667     12.000000
  0.500000 -0.166667  0.083333     12.000000
  0.500000  0.166667 -0.083333     12.000000
  0.166667 -0.333333  0.250000     12.000000
 -0.166667  0.333333 -0.250000     12.000000
  0.500000 -0.083333  0.166667     12.000000
  0.500000  0.083333 -0.166667     12.000000
 -0.166667 -0.250000  0.333333     12.000000
  0.166667  0.250000 -0.333333     12.000000
 -0.333333  0.416667  0.500000     12.000000
  0.333333 -0.416667  0.500000     12.000000
  0.416667 -0.083333 -0.250000     12.000000
 -0.416667  0.083333  0.250000     12.000000
 -0.250000  0.416667 -0.083333     12.000000
  0.250000 -0.416667  0.083333     12.000000
 -0.083333 -0.250000  0.416667     12.000000
  0.083333  0.250000 -0.416667     12.000000
 -0.250000  0.250000  0.083333     12.000000
  0.250000 -0.250000 -0.083333     12.000000
  0.083333 -0.250000  0.250000     12.000000
 -0.083333  0.250000 -0.250000     12.000000
  0.250000  0.083333 -0.250000     12.000000
 -0.250000 -0.083333  0.250000     12.000000
  0.250000  0.166667  0.500000     12.000000
 -0.250000 -0.166667  0.500000     12.000000
 -0.250000  0.500000 -0.333333     12.000000
  0.250000  0.500000  0.333333     12.000000
  0.083333  0.333333 -0.166667     12.000000
 -0.083333 -0.333333  0.166667     12.000000
  0.166667 -0.333333 -0.083333     12.000000
 -0.166667  0.333333  0.083333     12.000000
  0.500000 -0.166667 -0.250000     12.000000
  0.500000  0.166667  0.250000     12.000000
  0.333333  0.500000  0.250000     12.000000
 -0.333333  0.500000 -0.250000     12.000000
 -0.333333 -0.250000  0.500000     12.000000
  0.333333  0.250000  0.500000     12.000000
 -0.166667  0.083333  0.333333     12.000000
  0.166667 -0.083333 -0.333333     12.000000
  0.500000  0.250000  0.166667     12.000000
  0.500000 -0.250000 -0.166667     12.000000
 -0.083333  0.166667 -0.333333     12.000000
  0.083333 -0.166667  0.333333     12.000000
 -0.250000  0.500000 -0.166667     12.000000
  0.250000  0.500000  0.166667     12.000000
  0.250000  0.333333  0.500000     12.000000
 -0.250000 -0.333333  0.500000     12.000000
  0.500000 -0.333333 -0.250000     12.000000
  0.500000  0.333333  0.250000     12.000000
  0.333333 -0.166667  0.083333     12.000000
 -0.333333  0.166667 -0.083333     12.000000
  0.166667  0.500000  0.250000     12.000000
 -0.166667  0.500000 -0.250000     12.000000
 -0.333333 -0.083333  0.166667     12.000000
  0.333333  0.083333 -0.166667     12.000000
 -0.166667 -0.250000  0.500000     12.000000
  0.166667  0.250000  0.500000     12.000000
  0.500000  0.250000  0.333333     12.000000
  0.500000 -0.250000 -0.333333     12.000000
  0.250000 -0.083333 -0.250000     12.000000
 -0.250000  0.083333  0.250000     12.000000
 -0.250000  0.250000 -0.083333     12.000000
  0.250000 -0.250000  0.083333     12.000000
 -0.083333 -0.250000  0.250000     12.000000
  0.083333  0.250000 -0.250000     12.000000
 -0.083333  0.250000  0.083333     12.000000
  0.083333 -0.250000 -0.083333     12.000000
  0.083333 -0.083333  0.250000     12.000000
 -0.083333  0.083333 -0.250000     12.000000
  0.250000  0.083333 -0.083333     12.000000
 -0.250000 -0.083333  0.083333     12.000000
  0.250000  0.166667  0.333333     12.000000
 -0.250000 -0.166667 -0.333333     12.000000
 -0.083333 -0.333333 -0.166667     12.000000
  0.083333  0.333333  0.166667     12.000000
  0.083333  0.166667 -0.166667     12.000000
 -0.083333 -0.166667  0.166667     12.000000
  0.166667 -0.166667 -0.083333     12.000000
 -0.166667  0.166667  0.083333     12.000000
 -0.333333 -0.166667 -0.250000     12.000000
  0.333333  0.166667  0.250000     12.000000
  0.166667  0.333333  0.083333     12.000000
 -0.166667 -0.333333 -0.083333     12.000000
 -0.166667 -0.083333 -0.333333     12.000000
  0.166667  0.083333  0.333333     12.000000
 -0.166667  0.083333  0.166667     12.000000
  0.166667 -0.083333 -0.166667     12.000000
  0.333333  0.250000  0.166667     12.000000
 -0.333333 -0.250000 -0.166667     12.000000
 -0.083333  0.166667 -0.166667     12.000000
  0.083333 -0.166667  0.166667     12.000000
 -0.250000 -0.333333 -0.166667     12.000000
  0.250000  0.333333  0.166667     12.000000
  0.083333  0.166667  0.333333     12.000000
 -0.083333 -0.166667 -0.333333     12.000000
 -0.333333 -0.166667 -0.083333     12.000000
  0.333333  0.166667  0.083333     12.000000
  0.166667 -0.166667  0.083333     12.000000
 -0.166667  0.166667 -0.083333     12.000000
  0.166667  0.333333  0.250000     12.000000
 -0.166667 -0.333333 -0.250000     12.000000
 -0.166667 -0.083333  0.166667     12.000000
  0.166667  0.083333 -0.166667     12.000000
 -0.166667 -0.250000 -0.333333     12.000000
  0.166667  0.250000  0.333333     12.000000
  0.333333  0.083333  0.166667     12.000000
 -0.333333 -0.083333 -0.166667     12.000000
  0.083333 -0.083333 -0.250000     12.000000
 -0.083333  0.083333  0.250000     12.000000
 -0.250000  0.083333 -0.083333     12.000000
  0.250000 -0.083333  0.083333     12.000000
 -0.083333 -0.250000  0.083333     12.000000
  0.083333  0.250000 -0.083333     12.000000
  0.416667  0.416667  0.083333     12.000000
 -0.416667 -0.416667 -0.083333     12.000000
  0.083333  0.416667  0.416667     12.000000
 -0.083333 -0.416667 -0.416667     12.000000
  0.416667  0.083333  0.416667     12.000000
 -0.416667 -0.083333 -0.416667     12.000000
  0.416667  0.333333  0.000000     12.000000
 -0.416667 -0.333333  0.000000     12.000000
  0.416667  0.000000  0.333333     12.000000
 -0.416667  0.000000 -0.333333     12.000000
  0.083333 -0.333333 -0.333333     12.000000
 -0.083333  0.333333  0.333333     12.000000
  0.333333  0.333333 -0.083333     12.000000
 -0.333333 -0.333333  0.083333     12.000000
  0.000000 -0.333333 -0.416667     12.000000
  0.000000  0.333333  0.416667     12.000000
 -0.333333  0.000000 -0.416667     12.000000
  0.333333  0.000000  0.416667     12.000000
  0.333333  0.416667  0.000000     12.000000
 -0.333333 -0.416667  0.000000     12.000000
 -0.333333  0.083333 -0.333333     12.000000
  0.333333 -0.083333  0.333333     12.000000
  0.000000  0.416667  0.333333     12.000000
  0.000000 -0.416667 -0.333333     12.000000
 -0.416667  0.416667  0.083333     12.000000
  0.416667 -0.416667 -0.083333     12.000000
  0.083333 -0.416667  0.416667     12.000000
 -0.083333  0.416667 -0.416667     12.000000
  0.416667  0.083333 -0.416667     12.000000
 -0.416667 -0.083333  0.416667     12.000000
  0.416667  0.333333 -0.166667     12.000000
 -0.416667 -0.333333  0.166667     12.000000
 -0.416667  0.166667  0.500000     12.000000
  0.416667 -0.166667  0.500000     12.000000
  0.083333  0.500000 -0.333333     12.000000
 -0.083333  0.500000  0.333333     12.000000
  0.333333  0.500000 -0.083333     12.000000
 -0.333333  0.500000  0.083333     12.000000
  0.166667 -0.333333 -0.416667     12.000000
 -0.166667  0.333333  0.416667     12.000000
  0.500000 -0.166667  0.416667     12.000000
  0.500000  0.166667 -0.416667     12.000000
  0.500000 -0.416667  0.166667     12.000000
  0.500000  0.416667 -0.166667     12.000000
 -0.333333  0.083333  0.500000     12.000000
  0.333333 -0.083333  0.500000     12.000000
 -0.166667  0.416667  0.333333     12.000000
  0.166667 -0.416667 -0.333333     12.000000
 -0.083333  0.333333  0.500000     12.000000
  0.083333 -0.333333  0.500000     12.000000
 -0.416667  0.166667 -0.333333     12.000000
  0.416667 -0.166667  0.333333     12.000000
  0.416667  0.500000 -0.166667     12.000000
 -0.416667  0.500000  0.166667     12.000000
  0.166667  0.500000 -0.416667     12.000000
 -0.166667  0.500000  0.416667     12.000000
  0.500000 -0.333333  0.083333     12.000000
  0.500000  0.333333 -0.083333     12.000000
  0.333333 -0.166667  0.416667     12.000000
 -0.333333  0.166667 -0.416667     12.000000
  0.500000 -0.083333  0.333333     12.000000
  0.500000  0.083333 -0.333333     12.000000
 -0.333333 -0.416667  0.166667     12.000000
  0.333333  0.416667 -0.166667     12.000000
 -0.166667  0.416667  0.500000     12.000000
  0.166667 -0.416667  0.500000     12.000000
  0.416667 -0.083333 -0.416667     12.000000
 -0.416667  0.083333  0.416667     12.000000
 -0.416667  0.416667 -0.083333     12.000000
  0.416667 -0.416667  0.083333     12.000000
 -0.083333 -0.416667  0.416667     12.000000
  0.083333  0.416667 -0.416667     12.000000
 -0.250000  0.416667  0.083333     12.000000
  0.250000 -0.416667 -0.083333     12.000000
  0.083333 -0.250000  0.416667     12.000000
 -0.083333  0.250000 -0.416667     12.000000
  0.416667  0.083333 -0.250000     12.000000
 -0.416667 -0.083333  0.250000     12.000000
  0.416667  0.333333 -0.333333     12.000000
 -0.416667 -0.333333  0.333333     12.000000
 -0.250000  0.333333 -0.333333     12.000000
  0.250000 -0.333333  0.333333     12.000000
  0.083333  0.333333 -0.333333     12.000000
 -0.083333 -0.333333  0.333333     12.000000
  0.333333 -0.333333 -0.083333     12.000000
 -0.333333  0.333333  0.083333     12.000000
  0.333333 -0.333333 -0.416667     12.000000
 -0.333333  0.333333  0.416667     12.000000
  0.333333 -0.333333  0.250000     12.000000
 -0.333333  0.333333 -0.250000     12.000000
 -0.333333 -0.250000  0.333333     12.000000
  0.333333  0.250000 -0.333333     12.000000
 -0.333333  0.083333  0.333333     12.000000
  0.333333 -0.083333 -0.333333     12.000000
 -0.333333  0.416667  0.333333     12.000000
  0.333333 -0.416667 -0.333333     12.000000
 -0.083333  0.333333 -0.333333     12.000000
  0.083333 -0.333333  0.333333     12.000000
 -0.416667  0.333333 -0.333333     12.000000
  0.416667 -0.333333  0.333333     12.000000
  0.250000  0.333333 -0.333333     12.000000
 -0.250000 -0.333333  0.333333     12.000000
  0.333333 -0.333333 -0.250000     12.000000
 -0.333333  0.333333  0.250000     12.000000
  0.333333 -0.333333  0.083333     12.000000
 -0.333333  0.333333 -0.083333     12.000000
  0.333333 -0.333333  0.416667     12.000000
 -0.333333  0.333333 -0.416667     12.000000
 -0.333333 -0.083333  0.333333     12.000000
  0.333333  0.083333 -0.333333     12.000000
 -0.333333 -0.416667  0.333333     12.000000
  0.333333  0.416667 -0.333333     12.000000
 -0.333333  0.250000  0.333333     12.000000
  0.333333 -0.250000 -0.333333     12.000000
  0.250000 -0.083333 -0.416667     12.000000
 -0.250000  0.083333  0.416667     12.000000
 -0.416667  0.250000 -0.083333     12.000000
  0.416667 -0.250000  0.083333     12.000000
 -0.083333 -0.416667  0.250000     12.000000
  0.083333  0.416667 -0.250000     12.000000
 -0.083333  0.416667  0.083333     12.000000
  0.083333 -0.416667 -0.083333     12.000000
  0.083333 -0.083333  0.416667     12.000000
 -0.083333  0.083333 -0.416667     12.000000
  0.416667  0.083333 -0.083333     12.000000
 -0.416667 -0.083333  0.083333     12.000000
  0.416667  0.333333  0.500000     12.000000
 -0.416667 -0.333333  0.500000     12.000000
 -0.083333  0.500000 -0.166667     12.000000
  0.083333  0.500000  0.166667     12.000000
  0.083333  0.166667 -0.333333     12.000000
 -0.083333 -0.166667  0.333333     12.000000
  0.333333 -0.166667 -0.083333     12.000000
 -0.333333  0.166667  0.083333     12.000000
  0.500000 -0.333333 -0.416667     12.000000
  0.500000  0.333333  0.416667     12.000000
  0.166667  0.500000  0.083333     12.000000
 -0.166667  0.500000 -0.083333     12.000000
 -0.166667 -0.083333  0.500000     12.000000
  0.166667  0.083333  0.500000     12.000000
 -0.333333  0.083333  0.166667     12.000000
  0.333333 -0.083333 -0.166667     12.000000
  0.500000  0.416667  0.333333     12.000000
  0.500000 -0.416667 -0.333333     12.000000
 -0.083333  0.333333 -0.166667     12.000000
  0.083333 -0.333333  0.166667     12.000000
 -0.416667  0.500000 -0.333333     12.000000
  0.416667  0.500000  0.333333     12.000000
  0.083333  0.166667  0.500000     12.000000
 -0.083333 -0.166667  0.500000     12.000000
  0.500000 -0.166667 -0.083333     12.000000
  0.500000  0.166667  0.083333     12.000000
  0.166667 -0.333333  0.083333     12.000000
 -0.166667  0.333333 -0.083333     12.000000
  0.333333  0.500000  0.416667     12.000000
 -0.333333  0.500000 -0.416667     12.000000
 -0.166667 -0.083333  0.333333     12.000000
  0.166667  0.083333 -0.333333     12.000000
 -0.333333 -0.416667  0.500000     12.000000
  0.333333  0.416667  0.500000     12.000000
  0.500000  0.083333  0.166667     12.000000
  0.500000 -0.083333 -0.166667     12.000000
  0.083333 -0.083333 -0.416667     12.000000
 -0.083333  0.083333  0.416667     12.000000
 -0.416667  0.083333 -0.083333     12.000000
  0.416667 -0.083333  0.083333     12.000000
 -0.083333 -0.416667  0.083333     12.000000
  0.083333  0.416667 -0.083333     12.000000
 -0.416667 -0.416667  0.083333     12.000000
  0.416667  0.416667 -0.083333     12.000000
  0.083333 -0.416667 -0.416667     12.000000
 -0.083333  0.416667  0.416667     12.000000
 -0.416667  0.083333 -0.416667     12.000000
  0.416667 -0.083333  0.416667     12.000000
 -0.416667  0.500000  0.000000     12.000000
  0.416667  0.500000  0.000000     12.000000
 -0.416667  0.000000  0.500000     12.000000
  0.416667  0.000000  0.500000     12.000000
  0.083333  0.500000  0.500000     12.000000
 -0.083333  0.500000  0.500000     12.000000
  0.500000  0.500000 -0.083333     12.000000
  0.500000  0.500000  0.083333     12.000000
  0.000000  0.500000  0.416667     12.000000
  0.000000  0.500000 -0.416667     12.000000
  0.500000  0.000000  0.416667     12.000000
  0.500000  0.000000 -0.416667     12.000000
  0.500000 -0.416667  0.000000     12.000000
  0.500000  0.416667  0.000000     12.000000
  0.500000  0.083333  0.500000     12.000000
  0.500000 -0.083333  0.500000     12.000000
  0.000000 -0.416667  0.500000     12.000000
  0.000000  0.416667  0.500000     12.000000
 -0.250000 -0.416667  0.083333     12.000000
  0.250000  0.416667 -0.083333     12.000000
  0.083333 -0.250000 -0.416667     12.000000
 -0.083333  0.250000  0.416667     12.000000
 -0.416667  0.083333 -0.250000     12.000000
  0.416667 -0.083333  0.250000     12.000000
 -0.416667  0.500000 -0.166667     12.000000
  0.416667  0.500000  0.166667     12.000000
 -0.250000  0.166667 -0.333333     12.000000
  0.250000 -0.166667  0.333333     12.000000
  0.083333  0.333333  0.500000     12.000000
 -0.083333 -0.333333  0.500000     12.000000
  0.500000 -0.333333 -0.083333     12.000000
  0.500000  0.333333  0.083333     12.000000
  0.166667  0.500000  0.416667     12.000000
 -0.166667  0.500000 -0.416667     12.000000
  0.333333 -0.166667  0.250000     12.000000
 -0.333333  0.166667 -0.250000     12.000000
 -0.333333 -0.250000  0.166667     12.000000
  0.333333  0.250000 -0.166667     12.000000
  0.500000  0.083333  0.333333     12.000000
  0.500000 -0.083333 -0.333333     12.000000
 -0.166667 -0.416667  0.500000     12.000000
  0.166667  0.416667  0.500000     12.000000
 -0.083333  0.500000 -0.333333     12.000000
  0.083333  0.500000  0.333333     12.000000
  0.416667  0.166667  0.500000     12.000000
 -0.416667 -0.166667  0.500000     12.000000
  0.250000  0.333333 -0.166667     12.000000
 -0.250000 -0.333333  0.166667     12.000000
  0.166667 -0.333333 -0.250000     12.000000
 -0.166667  0.333333  0.250000     12.000000
  0.333333  0.500000  0.083333     12.000000
 -0.333333  0.500000 -0.083333     12.000000
  0.500000 -0.166667 -0.416667     12.000000
  0.500000  0.166667  0.416667     12.000000
 -0.333333 -0.083333  0.500000     12.000000
  0.333333  0.083333  0.500000     12.000000
  0.500000  0.416667  0.166667     12.000000
  0.500000 -0.416667 -0.166667     12.000000
 -0.166667  0.250000  0.333333     12.000000
  0.166667 -0.250000 -0.333333     12.000000
  0.250000 -0.083333  0.416667     12.000000
 -0.250000  0.083333 -0.416667     12.000000
  0.416667  0.250000 -0.083333     12.000000
 -0.416667 -0.250000  0.083333     12.000000
 -0.083333  0.416667  0.250000     12.000000
  0.083333 -0.416667 -0.250000     12.000000
 -0.250000 -0.250000  0.083333     12.000000
  0.250000  0.250000 -0.083333     12.000000
  0.083333 -0.250000 -0.250000     12.000000
 -0.083333  0.250000  0.250000     12.000000
 -0.250000  0.083333 -0.250000     12.000000
  0.250000 -0.083333  0.250000     12.000000
 -0.250000 -0.333333  0.000000     12.000000
  0.250000  0.333333  0.000000     12.000000
 -0.250000  0.000000 -0.333333     12.000000
  0.250000  0.000000  0.333333     12.000000
  0.083333  0.333333  0.333333     12.000000
 -0.083333 -0.333333 -0.333333     12.000000
 -0.333333 -0.333333 -0.083333     12.000000
  0.333333  0.333333  0.083333     12.000000
  0.000000  0.333333  0.250000     12.000000
  0.000000 -0.333333 -0.250000     12.000000
  0.333333  0.000000  0.250000     12.000000
 -0.333333  0.000000 -0.250000     12.000000
 -0.333333 -0.250000  0.000000     12.000000
  0.333333  0.250000  0.000000     12.000000
  0.333333  0.083333  0.333333     12.000000
 -0.333333 -0.083333 -0.333333     12.000000
  0.000000 -0.250000 -0.333333     12.000000
  0.000000  0.250000  0.333333     12.000000
  0.250000  0.250000  0.250000     12.000000
 -0.250000 -0.250000 -0.250000     12.000000
  0.250000  0.000000  0.000000     12.000000
 -0.250000  0.000000  0.000000     12.000000
  0.000000  0.000000 -0.250000     12.000000
  0.000000  0.000000  0.250000     12.000000
  0.000000  0.250000  0.000000     12.000000
  0.000000 -0.250000  0.000000     12.000000
  0.416667  0.250000  0.250000     12.000000
 -0.416667 -0.250000 -0.250000     12.000000
  0.250000  0.416667  0.250000     12.000000
 -0.250000 -0.416667 -0.250000     12.000000
  0.250000  0.250000  0.416667     12.000000
 -0.250000 -0.250000 -0.416667     12.000000
  0.250000  0.000000 -0.166667     12.000000
 -0.250000  0.000000  0.166667     12.000000
  0.416667  0.166667  0.166667     12.000000
 -0.416667 -0.166667 -0.166667     12.000000
  0.250000 -0.166667  0.000000     12.000000
 -0.250000  0.166667  0.000000     12.000000
  0.000000  0.166667 -0.250000     12.000000
  0.000000 -0.166667  0.250000     12.000000
  0.166667  0.000000 -0.250000     12.000000
 -0.166667  0.000000  0.250000     12.000000
 -0.166667 -0.166667 -0.416667     12.000000
  0.166667  0.166667  0.416667     12.000000
  0.166667  0.416667  0.166667     12.000000
 -0.166667 -0.416667 -0.166667     12.000000
  0.000000  0.250000 -0.166667     12.000000
  0.000000 -0.250000  0.166667     12.000000
 -0.166667  0.250000  0.000000     12.000000
  0.166667 -0.250000  0.000000     12.000000
 -0.416667  0.250000  0.250000     12.000000
  0.416667 -0.250000 -0.250000     12.000000
  0.250000 -0.416667  0.250000     12.000000
 -0.250000  0.416667 -0.250000     12.000000
  0.250000  0.250000 -0.416667     12.000000
 -0.250000 -0.250000  0.416667     12.000000
  0.250000  0.000000 -0.333333     12.000000
 -0.250000  0.000000  0.333333     12.000000
 -0.416667  0.333333  0.333333     12.000000
  0.416667 -0.333333 -0.333333     12.000000
  0.250000 -0.333333  0.000000     12.000000
 -0.250000  0.333333  0.000000     12.000000
  0.000000  0.333333 -0.250000     12.000000
  0.000000 -0.333333  0.250000     12.000000
  0.333333  0.000000 -0.250000     12.000000
 -0.333333  0.000000  0.250000     12.000000
 -0.333333 -0.333333  0.416667     12.000000
  0.333333  0.333333 -0.416667     12.000000
  0.333333 -0.416667  0.333333     12.000000
 -0.333333  0.416667 -0.333333     12.000000
  0.000000  0.250000 -0.333333     12.000000
  0.000000 -0.250000  0.333333     12.000000
 -0.333333  0.250000  0.000000     12.000000
  0.333333 -0.250000  0.000000     12.000000
 -0.250000  0.250000  0.250000     12.000000
  0.250000 -0.250000 -0.250000     12.000000
  0.250000 -0.250000  0.250000     12.000000
 -0.250000  0.250000 -0.250000     12.000000
  0.250000  0.250000 -0.250000     12.000000
 -0.250000 -0.250000  0.250000     12.000000
  0.250000  0.000000  0.500000     12.000000
 -0.250000  0.000000  0.500000     12.000000
 -0.250000  0.500000  0.500000     12.000000
  0.250000  0.500000  0.500000     12.000000
  0.250000  0.500000  0.000000     12.000000
 -0.250000  0.500000  0.000000     12.000000
  0.000000  0.500000 -0.250000     12.000000
  0.000000  0.500000  0.250000     12.000000
  0.500000  0.000000 -0.250000     12.000000
  0.500000  0.000000  0.250000     12.000000
  0.500000  0.500000  0.250000     12.000000
  0.500000  0.500000 -0.250000     12.000000
  0.500000 -0.250000  0.500000     12.000000
  0.500000  0.250000  0.500000     12.000000
  0.000000  0.250000  0.500000     12.000000
  0.000000 -0.250000  0.500000     12.000000
  0.500000  0.250000  0.000000     12.000000
  0.500000 -0.250000  0.000000     12.000000
  0.416667  0.416667  0.250000     12.000000
 -0.416667 -0.416667 -0.250000     12.000000
  0.250000  0.416667  0.416667     12.000000
 -0.250000 -0.416667 -0.416667     12.000000
  0.416667  0.250000  0.416667     12.000000
 -0.416667 -0.250000 -0.416667     12.000000
  0.416667  0.166667  0.000000     12.000000
 -0.416667 -0.166667  0.000000     12.000000
  0.416667  0.000000  0.166667     12.000000
 -0.416667  0.000000 -0.166667     12.000000
  0.250000 -0.166667 -0.166667     12.000000
 -0.250000  0.166667  0.166667     12.000000
  0.166667  0.166667 -0.250000     12.000000
 -0.166667 -0.166667  0.250000     12.000000
  0.000000 -0.166667 -0.416667     12.000000
  0.000000  0.166667  0.416667     12.000000
 -0.166667  0.000000 -0.416667     12.000000
  0.166667  0.000000  0.416667     12.000000
  0.166667  0.416667  0.000000     12.000000
 -0.166667 -0.416667  0.000000     12.000000
 -0.166667  0.250000 -0.166667     12.000000
  0.166667 -0.250000  0.166667     12.000000
  0.000000  0.416667  0.166667     12.000000
  0.000000 -0.416667 -0.166667     12.000000
 -0.416667  0.416667  0.250000     12.000000
  0.416667 -0.416667 -0.250000     12.000000
  0.250000 -0.416667  0.416667     12.000000
 -0.250000  0.416667 -0.416667     12.000000
  0.416667  0.250000 -0.416667     12.000000
 -0.416667 -0.250000  0.416667     12.000000
  0.416667  0.166667 -0.166667     12.000000
 -0.416667 -0.166667  0.166667     12.000000
 -0.416667  0.166667  0.333333     12.000000
  0.416667 -0.166667 -0.333333     12.000000
  0.250000 -0.333333 -0.166667     12.000000
 -0.250000  0.333333  0.166667     12.000000
  0.166667  0.333333 -0.250000     12.000000
 -0.166667 -0.333333  0.250000     12.000000
  0.166667 -0.166667 -0.416667     12.000000
 -0.166667  0.166667  0.416667     12.000000
 -0.333333 -0.166667  0.416667     12.000000
  0.333333  0.166667 -0.416667     12.000000
  0.333333 -0.416667  0.166667     12.000000
 -0.333333  0.416667 -0.166667     12.000000
 -0.166667  0.250000 -0.333333     12.000000
  0.166667 -0.250000  0.333333     12.000000
 -0.166667  0.416667  0.166667     12.000000
  0.166667 -0.416667 -0.166667     12.000000
 -0.250000  0.166667  0.333333     12.000000
  0.250000 -0.166667 -0.333333     12.000000
 -0.416667  0.166667 -0.166667     12.000000
  0.416667 -0.166667  0.166667     12.000000
  0.416667 -0.333333 -0.166667     12.000000
 -0.416667  0.333333  0.166667     12.000000
  0.166667  0.333333 -0.416667     12.000000
 -0.166667 -0.333333  0.416667     12.000000
 -0.333333 -0.166667  0.250000     12.000000
  0.333333  0.166667 -0.250000     12.000000
  0.166667 -0.166667  0.416667     12.000000
 -0.166667  0.166667 -0.416667     12.000000
  0.333333 -0.250000  0.166667     12.000000
 -0.333333  0.250000 -0.166667     12.000000
 -0.166667 -0.416667  0.166667     12.000000
  0.166667  0.416667 -0.166667     12.000000
 -0.166667  0.416667 -0.333333     12.000000
  0.166667 -0.416667  0.333333     12.000000
  0.416667 -0.250000 -0.416667     12.000000
 -0.416667  0.250000  0.416667     12.000000
 -0.416667  0.416667 -0.250000     12.000000
  0.416667 -0.416667  0.250000     12.000000
 -0.250000 -0.416667  0.416667     12.000000
  0.250000  0.416667 -0.416667     12.000000
 -0.250000  0.416667  0.250000     12.000000
  0.250000 -0.416667 -0.250000     12.000000
  0.250000 -0.250000  0.416667     12.000000
 -0.250000  0.250000 -0.416667     12.000000
  0.416667  0.250000 -0.250000     12.000000
 -0.416667 -0.250000  0.250000     12.000000
  0.416667  0.166667 -0.333333     12.000000
 -0.416667 -0.166667  0.333333     12.000000
 -0.250000  0.333333  0.500000     12.000000
  0.250000 -0.333333  0.500000     12.000000
  0.250000  0.500000 -0.166667     12.000000
 -0.250000  0.500000  0.166667     12.000000
  0.166667  0.500000 -0.250000     12.000000
 -0.166667  0.500000  0.250000     12.000000
  0.333333 -0.166667 -0.416667     12.000000
 -0.333333  0.166667  0.416667     12.000000
  0.500000 -0.333333  0.250000     12.000000
  0.500000  0.333333 -0.250000     12.000000
  0.500000 -0.250000  0.333333     12.000000
  0.500000  0.250000 -0.333333     12.000000
 -0.166667  0.250000  0.500000     12.000000
  0.166667 -0.250000  0.500000     12.000000
 -0.333333  0.416667  0.166667     12.000000
  0.333333 -0.416667 -0.166667     12.000000
 -0.250000  0.166667  0.500000     12.000000
  0.250000 -0.166667  0.500000     12.000000
 -0.416667  0.333333 -0.166667     12.000000
  0.416667 -0.333333  0.166667     12.000000
  0.250000  0.500000 -0.333333     12.000000
 -0.250000  0.500000  0.333333     12.000000
  0.333333  0.500000 -0.250000     12.000000
 -0.333333  0.500000  0.250000     12.000000
  0.500000 -0.166667  0.250000     12.000000
  0.500000  0.166667 -0.250000     12.000000
  0.166667 -0.333333  0.416667     12.000000
 -0.166667  0.333333 -0.416667     12.000000
  0.500000 -0.250000  0.166667     12.000000
  0.500000  0.250000 -0.166667     12.000000
 -0.166667 -0.416667  0.333333     12.000000
  0.166667  0.416667 -0.333333     12.000000
 -0.333333  0.250000  0.500000     12.000000
  0.333333 -0.250000  0.500000     12.000000
  0.250000 -0.250000 -0.416667     12.000000
 -0.250000  0.250000  0.416667     12.000000
 -0.416667  0.250000 -0.250000     12.000000
  0.416667 -0.250000  0.250000     12.000000
 -0.250000 -0.416667  0.250000     12.000000
  0.250000  0.416667 -0.250000     12.000000
 -0.416667 -0.416667  0.250000     12.000000
  0.416667  0.416667 -0.250000     12.000000
  0.250000 -0.416667 -0.416667     12.000000
 -0.250000  0.416667  0.416667     12.000000
 -0.416667  0.250000 -0.416667     12.000000
  0.416667 -0.250000  0.416667     12.000000
 -0.416667  0.333333  0.000000     12.000000
  0.416667 -0.333333  0.000000     12.000000
 -0.416667  0.000000  0.333333     12.000000
  0.416667  0.000000 -0.333333     12.000000
  0.250000 -0.333333 -0.333333     12.000000
 -0.250000  0.333333  0.333333     12.000000
  0.333333  0.333333 -0.250000     12.000000
 -0.333333 -0.333333  0.250000     12.000000
  0.000000 -0.333333  0.416667     12.000000
  0.000000  0.333333 -0.416667     12.000000
 -0.333333  0.000000  0.416667     12.000000
  0.333333  0.000000 -0.416667     12.000000
  0.333333 -0.416667  0.000000     12.000000
 -0.333333  0.416667  0.000000     12.000000
 -0.333333  0.250000 -0.333333     12.000000
  0.333333 -0.250000  0.333333     12.000000
  0.000000 -0.416667  0.333333     12.000000
  0.000000  0.416667 -0.333333     12.000000
  0.416667  0.416667  0.416667     12.000000
 -0.416667 -0.416667 -0.416667     12.000000
  0.416667  0.000000  0.000000     12.000000
 -0.416667  0.000000  0.000000     12.000000
  0.000000  0.000000 -0.416667     12.000000
  0.000000  0.000000  0.416667     12.000000
  0.000000  0.416667  0.000000     12.000000
  0.000000 -0.416667  0.000000     12.000000
 -0.416667  0.416667  0.416667     12.000000
  0.416667 -0.416667 -0.416667     12.000000
  0.416667 -0.416667  0.416667     12.000000
 -0.416667  0.416667 -0.416667     12.000000
  0.416667  0.416667 -0.416667     12.000000
 -0.416667 -0.416667  0.416667     12.000000
  0.416667  0.000000 -0.166667     12.000000
 -0.416667  0.000000  0.166667     12.000000
 -0.416667  0.166667  0.166667     12.000000
  0.416667 -0.166667 -0.166667     12.000000
  0.416667 -0.166667  0.000000     12.000000
 -0.416667  0.166667  0.000000     12.000000
  0.000000  0.166667 -0.416667     12.000000
  0.000000 -0.166667  0.416667     12.000000
  0.166667  0.000000 -0.416667     12.000000
 -0.166667  0.000000  0.416667     12.000000
 -0.166667 -0.166667  0.416667     12.000000
  0.166667  0.166667 -0.416667     12.000000
  0.166667 -0.416667  0.166667     12.000000
 -0.166667  0.416667 -0.166667     12.000000
  0.000000  0.416667 -0.166667     12.000000
  0.000000 -0.416667  0.166667     12.000000
 -0.166667  0.416667  0.000000     12.000000
  0.166667 -0.416667  0.000000     12.000000
 
 Following cartesian coordinates:
            Coordinates               Weight
 -0.015240  0.015240  0.015240     12.000000
  0.015240 -0.015240 -0.015240     12.000000
 -0.015240 -0.015240  0.015240     12.000000
  0.015240  0.015240 -0.015240     12.000000
  0.015240 -0.015240  0.015240     12.000000
 -0.015240  0.015240 -0.015240     12.000000
  0.015240  0.015240  0.015240     12.000000
 -0.015240 -0.015240 -0.015240     12.000000
 -0.045721 -0.015240  0.045721     12.000000
  0.045721  0.015240 -0.045721     12.000000
  0.015240  0.045721  0.045721     12.000000
 -0.015240 -0.045721 -0.045721     12.000000
 -0.045721  0.045721 -0.015240     12.000000
  0.045721 -0.045721  0.015240     12.000000
  0.015240 -0.045721  0.045721     12.000000
 -0.015240  0.045721 -0.045721     12.000000
 -0.045721  0.015240  0.045721     12.000000
  0.045721 -0.015240 -0.045721     12.000000
 -0.045721 -0.045721 -0.015240     12.000000
  0.045721  0.045721  0.015240     12.000000
  0.045721  0.015240  0.045721     12.000000
 -0.045721 -0.015240 -0.045721     12.000000
 -0.015240 -0.045721  0.045721     12.000000
  0.015240  0.045721 -0.045721     12.000000
  0.045721 -0.045721 -0.015240     12.000000
 -0.045721  0.045721  0.015240     12.000000
 -0.015240  0.045721  0.045721     12.000000
  0.015240 -0.045721 -0.045721     12.000000
  0.045721 -0.015240  0.045721     12.000000
 -0.045721  0.015240 -0.045721     12.000000
  0.045721  0.045721 -0.015240     12.000000
 -0.045721 -0.045721  0.015240     12.000000
 -0.076201 -0.045721  0.076201     12.000000
  0.076201  0.045721 -0.076201     12.000000
  0.045721  0.076201  0.076201     12.000000
 -0.045721 -0.076201 -0.076201     12.000000
 -0.076201  0.076201 -0.045721     12.000000
  0.076201 -0.076201  0.045721     12.000000
  0.045721 -0.076201  0.076201     12.000000
 -0.045721  0.076201 -0.076201     12.000000
 -0.076201  0.045721  0.076201     12.000000
  0.076201 -0.045721 -0.076201     12.000000
 -0.076201 -0.076201 -0.045721     12.000000
  0.076201  0.076201  0.045721     12.000000
  0.076201  0.045721  0.076201     12.000000
 -0.076201 -0.045721 -0.076201     12.000000
 -0.045721 -0.076201  0.076201     12.000000
  0.045721  0.076201 -0.076201     12.000000
  0.076201 -0.076201 -0.045721     12.000000
 -0.076201  0.076201  0.045721     12.000000
 -0.045721  0.076201  0.076201     12.000000
  0.045721 -0.076201 -0.076201     12.000000
  0.076201 -0.045721  0.076201     12.000000
 -0.076201  0.045721 -0.076201     12.000000
  0.076201  0.076201 -0.045721     12.000000
 -0.076201 -0.076201  0.045721     12.000000
  0.076201  0.106681 -0.076201     12.000000
 -0.076201 -0.106681  0.076201     12.000000
 -0.106681 -0.076201 -0.076201     12.000000
  0.106681  0.076201  0.076201     12.000000
  0.076201 -0.076201  0.106681     12.000000
 -0.076201  0.076201 -0.106681     12.000000
 -0.106681  0.076201 -0.076201     12.000000
 -0.076201  0.106681 -0.106681     12.000000
  0.076201  0.259083 -0.076201     12.000000
 -0.076201  0.106681  0.076201     12.000000
  0.076201  0.076201  0.106681     12.000000
  0.106681  0.106681  0.076201     12.000000
  0.106681  0.076201  0.106681     12.000000
  0.076201  0.106681  0.076201     12.000000
 -0.076201 -0.106681  0.106681     12.000000
 -0.106681 -0.076201  0.076201     12.000000
 -0.076201  0.076201  0.106681     12.000000
  0.076201 -0.076201  0.259083     12.000000
 -0.259083 -0.076201 -0.076201     12.000000
 -0.106681  0.076201  0.076201     12.000000
 -0.076201  0.106681 -0.076201     12.000000
 -0.106681  0.076201 -0.106681     12.000000
 -0.076201 -0.076201  0.106681     12.000000
 -0.106681 -0.106681  0.076201     12.000000
  0.045721  0.076201 -0.045721     12.000000
 -0.045721 -0.076201  0.045721     12.000000
 -0.076201 -0.045721 -0.045721     12.000000
  0.076201  0.045721  0.045721     12.000000
  0.045721 -0.045721  0.076201     12.000000
 -0.045721  0.045721 -0.076201     12.000000
 -0.076201  0.045721 -0.045721     12.000000
  0.076201 -0.045721  0.045721     12.000000
  0.045721 -0.076201 -0.045721     12.000000
 -0.045721  0.076201  0.045721     12.000000
  0.045721  0.045721  0.076201     12.000000
 -0.045721 -0.045721 -0.076201     12.000000
 -0.045721 -0.076201 -0.045721     12.000000
  0.045721  0.076201  0.045721     12.000000
  0.076201  0.045721 -0.045721     12.000000
 -0.076201 -0.045721  0.045721     12.000000
 -0.045721  0.045721  0.076201     12.000000
  0.045721 -0.045721 -0.076201     12.000000
  0.076201 -0.045721 -0.045721     12.000000
 -0.076201  0.045721  0.045721     12.000000
 -0.045721  0.076201 -0.045721     12.000000
  0.045721 -0.076201  0.045721     12.000000
 -0.045721 -0.045721  0.076201     12.000000
  0.045721  0.045721 -0.076201     12.000000
  0.015240  0.045721 -0.015240     12.000000
 -0.015240 -0.045721  0.015240     12.000000
 -0.045721 -0.015240 -0.015240     12.000000
  0.045721  0.015240  0.015240     12.000000
  0.015240 -0.015240  0.045721     12.000000
 -0.015240  0.015240 -0.045721     12.000000
 -0.045721  0.015240 -0.015240     12.000000
  0.045721 -0.015240  0.015240     12.000000
  0.015240 -0.045721 -0.015240     12.000000
 -0.015240  0.045721  0.015240     12.000000
  0.015240  0.015240  0.045721     12.000000
 -0.015240 -0.015240 -0.045721     12.000000
 -0.015240 -0.045721 -0.015240     12.000000
  0.015240  0.045721  0.015240     12.000000
  0.045721  0.015240 -0.015240     12.000000
 -0.045721 -0.015240  0.015240     12.000000
 -0.015240  0.015240  0.045721     12.000000
  0.015240 -0.015240 -0.045721     12.000000
  0.045721 -0.015240 -0.015240     12.000000
 -0.045721  0.015240  0.015240     12.000000
 -0.015240  0.045721 -0.015240     12.000000
  0.015240 -0.045721  0.015240     12.000000
 -0.015240 -0.015240  0.045721     12.000000
  0.015240  0.015240 -0.045721     12.000000
 -0.015240  0.015240  0.076201     12.000000
  0.015240 -0.015240 -0.076201     12.000000
 -0.015240  0.076201  0.015240     12.000000
  0.015240 -0.076201 -0.015240     12.000000
 -0.076201  0.015240  0.015240     12.000000
  0.076201 -0.015240 -0.015240     12.000000
 -0.015240 -0.015240  0.076201     12.000000
  0.015240  0.015240 -0.076201     12.000000
 -0.076201 -0.015240  0.015240     12.000000
  0.076201  0.015240 -0.015240     12.000000
 -0.015240 -0.076201  0.015240     12.000000
  0.015240  0.076201 -0.015240     12.000000
  0.015240 -0.015240  0.076201     12.000000
 -0.015240  0.015240 -0.076201     12.000000
  0.015240 -0.076201  0.015240     12.000000
 -0.015240  0.076201 -0.015240     12.000000
  0.076201 -0.015240  0.015240     12.000000
 -0.076201  0.015240 -0.015240     12.000000
  0.015240  0.015240  0.076201     12.000000
 -0.015240 -0.015240 -0.076201     12.000000
  0.076201  0.015240  0.015240     12.000000
 -0.076201 -0.015240 -0.015240     12.000000
  0.015240  0.076201  0.015240     12.000000
 -0.015240 -0.076201 -0.015240     12.000000
 -0.045721 -0.015240  0.106681     12.000000
  0.045721  0.015240 -0.106681     12.000000
  0.015240  0.106681  0.045721     12.000000
 -0.015240 -0.106681 -0.045721     12.000000
 -0.106681  0.045721 -0.015240     12.000000
  0.106681 -0.045721  0.015240     12.000000
  0.015240 -0.045721  0.106681     12.000000
 -0.015240  0.045721 -0.106681     12.000000
 -0.106681  0.015240  0.045721     12.000000
  0.106681 -0.015240 -0.045721     12.000000
 -0.045721 -0.106681 -0.015240     12.000000
  0.045721  0.106681  0.015240     12.000000
  0.045721  0.015240  0.106681     12.000000
 -0.045721 -0.015240 -0.106681     12.000000
 -0.015240 -0.106681  0.045721     12.000000
  0.015240  0.106681 -0.045721     12.000000
  0.106681 -0.045721 -0.015240     12.000000
 -0.106681  0.045721  0.015240     12.000000
 -0.015240  0.045721  0.106681     12.000000
  0.015240 -0.045721 -0.106681     12.000000
  0.106681 -0.015240  0.045721     12.000000
 -0.106681  0.015240 -0.045721     12.000000
  0.045721  0.106681 -0.015240     12.000000
 -0.045721 -0.106681  0.015240     12.000000
 -0.015240  0.106681 -0.045721     12.000000
  0.015240 -0.106681  0.045721     12.000000
  0.106681  0.045721  0.015240     12.000000
 -0.106681 -0.045721 -0.015240     12.000000
  0.045721 -0.015240 -0.106681     12.000000
 -0.045721  0.015240  0.106681     12.000000
 -0.045721  0.106681  0.015240     12.000000
  0.045721 -0.106681 -0.015240     12.000000
  0.015240  0.045721 -0.106681     12.000000
 -0.015240 -0.045721  0.106681     12.000000
 -0.106681 -0.015240 -0.045721     12.000000
  0.106681  0.015240  0.045721     12.000000
 -0.106681 -0.045721  0.015240     12.000000
  0.106681  0.045721 -0.015240     12.000000
 -0.045721  0.015240 -0.106681     12.000000
  0.045721 -0.015240  0.106681     12.000000
  0.015240 -0.106681 -0.045721     12.000000
 -0.015240  0.106681  0.045721     12.000000
  0.106681  0.015240 -0.045721     12.000000
 -0.106681 -0.015240  0.045721     12.000000
 -0.015240 -0.045721 -0.106681     12.000000
  0.015240  0.045721  0.106681     12.000000
  0.045721 -0.106681  0.015240     12.000000
 -0.045721  0.106681 -0.015240     12.000000
  0.106681  0.137162 -0.045721     12.000000
 -0.106681 -0.137162  0.045721     12.000000
 -0.137162 -0.045721 -0.106681     12.000000
  0.137162  0.045721  0.106681     12.000000
  0.045721 -0.106681  0.137162     12.000000
 -0.045721  0.106681 -0.137162     12.000000
  0.045721 -0.076201  0.137162     12.000000
 -0.045721  0.076201 -0.137162     12.000000
  0.045721  0.228603 -0.106681     12.000000
 -0.228603 -0.045721 -0.076201     12.000000
  0.106681  0.045721  0.137162     12.000000
  0.076201  0.137162  0.045721     12.000000
  0.076201  0.045721  0.137162     12.000000
  0.106681  0.137162  0.045721     12.000000
 -0.045721 -0.137162  0.076201     12.000000
  0.045721  0.137162 -0.076201     12.000000
 -0.228603 -0.076201 -0.045721     12.000000
  0.045721 -0.106681  0.228603     12.000000
 -0.228603 -0.106681 -0.045721     12.000000
  0.045721 -0.076201  0.228603     12.000000
 -0.045721  0.137162 -0.106681     12.000000
 -0.137162  0.045721 -0.076201     12.000000
  0.076201  0.137162 -0.045721     12.000000
 -0.076201 -0.137162  0.045721     12.000000
 -0.045721  0.137162 -0.076201     12.000000
 -0.137162  0.045721 -0.106681     12.000000
  0.137162  0.076201  0.045721     12.000000
 -0.137162 -0.076201 -0.045721     12.000000
  0.076201 -0.045721  0.228603     12.000000
  0.106681  0.228603 -0.045721     12.000000
  0.106681 -0.045721  0.228603     12.000000
  0.076201  0.228603 -0.045721     12.000000
 -0.137162 -0.106681  0.045721     12.000000
 -0.045721 -0.076201  0.137162     12.000000
 -0.137162 -0.045721 -0.076201     12.000000
  0.137162  0.045721  0.076201     12.000000
 -0.137162 -0.076201  0.045721     12.000000
 -0.045721 -0.106681  0.137162     12.000000
 -0.076201  0.045721 -0.137162     12.000000
  0.076201 -0.045721  0.137162     12.000000
  0.045721  0.228603 -0.076201     12.000000
 -0.228603 -0.045721 -0.106681     12.000000
 -0.045721 -0.137162  0.106681     12.000000
  0.045721  0.137162 -0.106681     12.000000
  0.137162  0.106681  0.045721     12.000000
 -0.137162 -0.106681 -0.045721     12.000000
 -0.106681  0.045721 -0.137162     12.000000
  0.106681 -0.045721  0.137162     12.000000
  0.076201  0.106681 -0.015240     12.000000
 -0.076201 -0.106681  0.015240     12.000000
 -0.106681 -0.015240 -0.076201     12.000000
  0.106681  0.015240  0.076201     12.000000
  0.015240 -0.076201  0.106681     12.000000
 -0.015240  0.076201 -0.106681     12.000000
 -0.106681  0.076201 -0.015240     12.000000
 -0.076201  0.106681 -0.167642     12.000000
  0.198122  0.076201  0.106681     12.000000
 -0.015240  0.106681  0.076201     12.000000
  0.076201  0.015240  0.106681     12.000000
 -0.076201 -0.015240 -0.106681     12.000000
 -0.076201 -0.106681 -0.015240     12.000000
  0.076201  0.106681  0.015240     12.000000
 -0.076201 -0.167642  0.106681     12.000000
 -0.106681 -0.015240  0.076201     12.000000
 -0.015240  0.076201  0.106681     12.000000
  0.198122  0.106681  0.076201     12.000000
 -0.076201  0.106681 -0.198122     12.000000
 -0.106681  0.076201  0.015240     12.000000
 -0.015240  0.106681 -0.076201     12.000000
  0.015240 -0.106681  0.076201     12.000000
 -0.076201 -0.015240  0.106681     12.000000
 -0.106681 -0.167642  0.076201     12.000000
  0.106681 -0.015240  0.076201     12.000000
 -0.106681  0.015240 -0.076201     12.000000
  0.167642  0.106681  0.076201     12.000000
  0.015240  0.076201  0.106681     12.000000
 -0.076201  0.106681  0.015240     12.000000
 -0.106681  0.076201 -0.198122     12.000000
 -0.106681 -0.198122  0.076201     12.000000
 -0.076201  0.015240  0.106681     12.000000
 -0.106681 -0.076201  0.015240     12.000000
  0.106681  0.076201 -0.015240     12.000000
  0.015240  0.106681  0.076201     12.000000
  0.167642  0.076201  0.106681     12.000000
  0.015240  0.076201 -0.106681     12.000000
 -0.015240 -0.076201  0.106681     12.000000
 -0.106681  0.076201 -0.167642     12.000000
 -0.076201  0.106681 -0.015240     12.000000
 -0.106681  0.015240  0.076201     12.000000
 -0.076201 -0.198122  0.106681     12.000000
 -0.015240 -0.106681  0.076201     12.000000
  0.015240  0.106681 -0.076201     12.000000
  0.106681  0.076201  0.015240     12.000000
 -0.106681 -0.076201 -0.015240     12.000000
 -0.076201  0.015240 -0.106681     12.000000
  0.076201 -0.015240  0.106681     12.000000
  0.045721  0.076201  0.015240     12.000000
 -0.045721 -0.076201 -0.015240     12.000000
 -0.076201  0.015240 -0.045721     12.000000
  0.076201 -0.015240  0.045721     12.000000
 -0.015240 -0.045721  0.076201     12.000000
  0.015240  0.045721 -0.076201     12.000000
 -0.076201  0.045721  0.015240     12.000000
  0.076201 -0.045721 -0.015240     12.000000
 -0.015240 -0.076201 -0.045721     12.000000
  0.015240  0.076201  0.045721     12.000000
  0.045721 -0.015240  0.076201     12.000000
 -0.045721  0.015240 -0.076201     12.000000
 -0.045721 -0.076201  0.015240     12.000000
  0.045721  0.076201 -0.015240     12.000000
  0.076201 -0.015240 -0.045721     12.000000
 -0.076201  0.015240  0.045721     12.000000
  0.015240  0.045721  0.076201     12.000000
 -0.015240 -0.045721 -0.076201     12.000000
  0.076201 -0.045721  0.015240     12.000000
 -0.076201  0.045721 -0.015240     12.000000
  0.015240  0.076201 -0.045721     12.000000
 -0.015240 -0.076201  0.045721     12.000000
 -0.045721  0.015240  0.076201     12.000000
  0.045721 -0.015240 -0.076201     12.000000
  0.076201  0.015240  0.045721     12.000000
 -0.076201 -0.015240 -0.045721     12.000000
  0.015240 -0.045721 -0.076201     12.000000
 -0.015240  0.045721  0.076201     12.000000
 -0.045721  0.076201 -0.015240     12.000000
  0.045721 -0.076201  0.015240     12.000000
  0.045721  0.015240 -0.076201     12.000000
 -0.045721 -0.015240  0.076201     12.000000
 -0.076201 -0.045721 -0.015240     12.000000
  0.076201  0.045721  0.015240     12.000000
 -0.015240  0.076201  0.045721     12.000000
  0.015240 -0.076201 -0.045721     12.000000
 -0.015240  0.045721 -0.076201     12.000000
  0.015240 -0.045721  0.076201     12.000000
  0.045721 -0.076201 -0.015240     12.000000
 -0.045721  0.076201  0.015240     12.000000
 -0.076201 -0.015240  0.045721     12.000000
  0.076201  0.015240 -0.045721     12.000000
  0.015240 -0.076201  0.045721     12.000000
 -0.015240  0.076201 -0.045721     12.000000
  0.076201  0.045721 -0.015240     12.000000
 -0.076201 -0.045721  0.015240     12.000000
 -0.045721 -0.015240 -0.076201     12.000000
  0.045721  0.015240  0.076201     12.000000
 -0.015240  0.015240  0.137162     12.000000
  0.015240 -0.015240 -0.137162     12.000000
 -0.015240  0.137162  0.015240     12.000000
  0.015240 -0.137162 -0.015240     12.000000
 -0.137162  0.015240  0.015240     12.000000
  0.137162 -0.015240 -0.015240     12.000000
 -0.015240 -0.015240  0.137162     12.000000
  0.015240  0.015240 -0.137162     12.000000
 -0.137162 -0.015240  0.015240     12.000000
  0.137162  0.015240 -0.015240     12.000000
 -0.015240 -0.137162  0.015240     12.000000
  0.015240  0.137162 -0.015240     12.000000
  0.015240 -0.015240  0.137162     12.000000
 -0.015240  0.015240 -0.137162     12.000000
  0.015240 -0.137162  0.015240     12.000000
 -0.015240  0.137162 -0.015240     12.000000
  0.137162 -0.015240  0.015240     12.000000
 -0.137162  0.015240 -0.015240     12.000000
  0.015240  0.015240  0.137162     12.000000
 -0.015240 -0.015240 -0.137162     12.000000
  0.137162  0.015240  0.015240     12.000000
 -0.137162 -0.015240 -0.015240     12.000000
  0.015240  0.137162  0.015240     12.000000
 -0.015240 -0.137162 -0.015240     12.000000
  0.137162  0.167642 -0.015240     12.000000
 -0.137162 -0.167642  0.015240     12.000000
 -0.167642 -0.015240 -0.137162     12.000000
  0.167642  0.015240  0.137162     12.000000
  0.015240 -0.137162  0.167642     12.000000
 -0.015240  0.137162 -0.167642     12.000000
  0.015240 -0.045721  0.167642     12.000000
 -0.015240  0.045721 -0.167642     12.000000
  0.015240  0.198122 -0.137162     12.000000
 -0.198122 -0.015240 -0.045721     12.000000
  0.137162  0.015240  0.167642     12.000000
  0.045721  0.167642  0.015240     12.000000
  0.045721  0.015240  0.167642     12.000000
  0.137162  0.167642  0.015240     12.000000
 -0.015240 -0.167642  0.045721     12.000000
  0.015240  0.167642 -0.045721     12.000000
 -0.198122 -0.045721 -0.015240     12.000000
  0.015240 -0.137162  0.198122     12.000000
 -0.198122 -0.137162 -0.015240     12.000000
  0.015240 -0.045721  0.198122     12.000000
 -0.015240  0.167642 -0.137162     12.000000
 -0.167642  0.015240 -0.045721     12.000000
  0.045721  0.167642 -0.015240     12.000000
 -0.045721 -0.167642  0.015240     12.000000
 -0.015240  0.167642 -0.045721     12.000000
 -0.167642  0.015240 -0.137162     12.000000
  0.167642  0.045721  0.015240     12.000000
 -0.167642 -0.045721 -0.015240     12.000000
  0.045721 -0.015240  0.198122     12.000000
  0.137162  0.198122 -0.015240     12.000000
  0.137162 -0.015240  0.198122     12.000000
  0.045721  0.198122 -0.015240     12.000000
 -0.167642 -0.137162  0.015240     12.000000
 -0.015240 -0.045721  0.167642     12.000000
 -0.167642 -0.015240 -0.045721     12.000000
  0.167642  0.015240  0.045721     12.000000
 -0.167642 -0.045721  0.015240     12.000000
 -0.015240 -0.137162  0.167642     12.000000
 -0.045721  0.015240 -0.167642     12.000000
  0.045721 -0.015240  0.167642     12.000000
  0.015240  0.198122 -0.045721     12.000000
 -0.198122 -0.015240 -0.137162     12.000000
 -0.015240 -0.167642  0.137162     12.000000
  0.015240  0.167642 -0.137162     12.000000
  0.167642  0.137162  0.015240     12.000000
 -0.167642 -0.137162 -0.015240     12.000000
 -0.137162  0.015240 -0.167642     12.000000
  0.137162 -0.015240  0.167642     12.000000
  0.106681  0.137162  0.015240     12.000000
 -0.106681 -0.137162 -0.015240     12.000000
 -0.137162  0.015240 -0.106681     12.000000
  0.137162 -0.015240  0.106681     12.000000
 -0.015240 -0.106681  0.137162     12.000000
  0.015240  0.106681 -0.137162     12.000000
  0.045721 -0.076201  0.198122     12.000000
 -0.045721  0.076201 -0.198122     12.000000
  0.167642  0.045721  0.076201     12.000000
 -0.167642 -0.045721 -0.076201     12.000000
  0.106681 -0.015240  0.137162     12.000000
 -0.106681  0.015240 -0.137162     12.000000
 -0.106681 -0.137162  0.015240     12.000000
  0.106681  0.137162 -0.015240     12.000000
 -0.045721 -0.198122  0.076201     12.000000
  0.045721  0.198122 -0.076201     12.000000
 -0.167642 -0.076201 -0.045721     12.000000
  0.167642  0.076201  0.045721     12.000000
 -0.045721  0.076201 -0.167642     12.000000
  0.045721 -0.076201  0.167642     12.000000
  0.015240  0.137162 -0.106681     12.000000
 -0.015240 -0.137162  0.106681     12.000000
  0.076201  0.198122 -0.045721     12.000000
 -0.076201 -0.198122  0.045721     12.000000
  0.137162  0.015240  0.106681     12.000000
 -0.137162 -0.015240 -0.106681     12.000000
  0.198122  0.076201  0.045721     12.000000
 -0.198122 -0.076201 -0.045721     12.000000
  0.076201 -0.045721  0.167642     12.000000
 -0.076201  0.045721 -0.167642     12.000000
 -0.076201 -0.167642  0.045721     12.000000
  0.076201  0.167642 -0.045721     12.000000
 -0.137162 -0.106681 -0.015240     12.000000
  0.137162  0.106681  0.015240     12.000000
 -0.198122 -0.045721 -0.076201     12.000000
  0.198122  0.045721  0.076201     12.000000
 -0.015240  0.106681 -0.137162     12.000000
  0.015240 -0.106681  0.137162     12.000000
 -0.076201  0.045721 -0.198122     12.000000
  0.076201 -0.045721  0.198122     12.000000
  0.045721  0.167642 -0.076201     12.000000
 -0.045721 -0.167642  0.076201     12.000000
  0.015240 -0.137162  0.106681     12.000000
 -0.015240  0.137162 -0.106681     12.000000
  0.137162  0.106681 -0.015240     12.000000
 -0.137162 -0.106681  0.015240     12.000000
 -0.106681 -0.015240 -0.137162     12.000000
  0.106681  0.015240  0.137162     12.000000
  0.076201  0.106681  0.045721     12.000000
 -0.076201 -0.106681 -0.045721     12.000000
 -0.106681  0.045721 -0.076201     12.000000
  0.106681 -0.045721  0.076201     12.000000
 -0.045721 -0.076201  0.106681     12.000000
  0.045721  0.076201 -0.106681     12.000000
 -0.106681  0.076201  0.045721     12.000000
 -0.076201  0.106681 -0.228603     12.000000
  0.137162  0.076201  0.106681     12.000000
  0.045721  0.106681  0.076201     12.000000
  0.076201 -0.045721  0.106681     12.000000
 -0.076201  0.045721 -0.106681     12.000000
 -0.076201 -0.106681  0.045721     12.000000
  0.076201  0.106681 -0.045721     12.000000
 -0.076201 -0.228603  0.106681     12.000000
 -0.106681  0.045721  0.076201     12.000000
  0.045721  0.076201  0.106681     12.000000
  0.137162  0.106681  0.076201     12.000000
 -0.076201  0.106681 -0.137162     12.000000
 -0.106681  0.076201 -0.045721     12.000000
  0.045721  0.106681 -0.076201     12.000000
 -0.045721 -0.106681  0.076201     12.000000
 -0.076201  0.045721  0.106681     12.000000
 -0.106681 -0.228603  0.076201     12.000000
  0.106681  0.045721  0.076201     12.000000
 -0.106681 -0.045721 -0.076201     12.000000
  0.228603  0.106681  0.076201     12.000000
 -0.045721  0.076201  0.106681     12.000000
 -0.076201  0.106681 -0.045721     12.000000
 -0.106681  0.076201 -0.137162     12.000000
 -0.106681 -0.137162  0.076201     12.000000
 -0.076201 -0.045721  0.106681     12.000000
 -0.106681 -0.076201 -0.045721     12.000000
  0.106681  0.076201  0.045721     12.000000
 -0.045721  0.106681  0.076201     12.000000
  0.228603  0.076201  0.106681     12.000000
 -0.045721  0.076201 -0.106681     12.000000
  0.045721 -0.076201  0.106681     12.000000
 -0.106681  0.076201 -0.228603     12.000000
 -0.076201  0.106681  0.045721     12.000000
 -0.106681 -0.045721  0.076201     12.000000
 -0.076201 -0.137162  0.106681     12.000000
  0.045721 -0.106681  0.076201     12.000000
 -0.045721  0.106681 -0.076201     12.000000
  0.106681  0.076201 -0.045721     12.000000
 -0.106681 -0.076201  0.045721     12.000000
 -0.076201 -0.045721 -0.106681     12.000000
  0.076201  0.045721  0.106681     12.000000
 -0.015240  0.015240 -0.167642     12.000000
  0.015240 -0.015240  0.167642     12.000000
 -0.015240 -0.167642  0.015240     12.000000
  0.015240  0.167642 -0.015240     12.000000
  0.167642  0.015240  0.015240     12.000000
 -0.167642 -0.015240 -0.015240     12.000000
  0.167642  0.167642  0.015240     12.000000
  0.015240  0.015240  0.167642     12.000000
 -0.015240  0.167642 -0.167642     12.000000
 -0.167642  0.015240 -0.015240     12.000000
 -0.015240  0.167642  0.015240     12.000000
  0.015240  0.198122 -0.015240     12.000000
  0.015240 -0.015240  0.198122     12.000000
 -0.015240  0.015240  0.167642     12.000000
  0.015240  0.167642  0.015240     12.000000
  0.167642  0.015240  0.167642     12.000000
 -0.167642 -0.015240  0.015240     12.000000
 -0.015240 -0.167642  0.167642     12.000000
 -0.167642 -0.167642  0.015240     12.000000
 -0.015240 -0.015240  0.167642     12.000000
 -0.167642  0.015240  0.015240     12.000000
 -0.198122 -0.015240 -0.015240     12.000000
 -0.167642  0.015240 -0.167642     12.000000
 -0.015240  0.167642 -0.015240     12.000000
 -0.045721 -0.015240 -0.137162     12.000000
  0.045721  0.015240  0.137162     12.000000
  0.015240 -0.137162  0.045721     12.000000
 -0.015240  0.137162 -0.045721     12.000000
  0.137162  0.045721 -0.015240     12.000000
 -0.137162 -0.045721  0.015240     12.000000
  0.198122  0.137162  0.045721     12.000000
 -0.015240  0.045721  0.137162     12.000000
  0.137162  0.015240  0.045721     12.000000
 -0.137162 -0.015240 -0.045721     12.000000
 -0.045721  0.137162 -0.015240     12.000000
 -0.137162  0.045721 -0.167642     12.000000
 -0.137162 -0.167642  0.045721     12.000000
 -0.045721 -0.015240  0.137162     12.000000
 -0.015240  0.137162  0.045721     12.000000
  0.198122  0.045721  0.137162     12.000000
 -0.137162 -0.045721 -0.015240     12.000000
  0.137162  0.045721  0.015240     12.000000
 -0.015240  0.045721 -0.137162     12.000000
  0.015240 -0.045721  0.137162     12.000000
 -0.137162 -0.015240  0.045721     12.000000
 -0.045721 -0.167642  0.137162     12.000000
 -0.137162  0.045721 -0.198122     12.000000
 -0.045721  0.137162  0.015240     12.000000
  0.167642  0.045721  0.137162     12.000000
  0.015240  0.137162  0.045721     12.000000
 -0.137162  0.045721  0.015240     12.000000
 -0.045721  0.137162 -0.198122     12.000000
  0.045721 -0.015240  0.137162     12.000000
 -0.045721  0.015240 -0.137162     12.000000
 -0.045721 -0.137162  0.015240     12.000000
  0.045721  0.137162 -0.015240     12.000000
  0.015240  0.045721  0.137162     12.000000
  0.167642  0.137162  0.045721     12.000000
 -0.045721 -0.198122  0.137162     12.000000
 -0.137162  0.015240  0.045721     12.000000
 -0.045721  0.137162 -0.167642     12.000000
 -0.137162  0.045721 -0.015240     12.000000
 -0.045721  0.015240  0.137162     12.000000
 -0.137162 -0.198122  0.045721     12.000000
  0.015240  0.137162 -0.045721     12.000000
 -0.015240 -0.137162  0.045721     12.000000
 -0.137162  0.015240 -0.045721     12.000000
  0.137162 -0.015240  0.045721     12.000000
 -0.015240 -0.045721  0.137162     12.000000
  0.015240  0.045721 -0.137162     12.000000
  0.045721  0.137162  0.015240     12.000000
 -0.045721 -0.137162 -0.015240     12.000000
 -0.015240  0.015240 -0.106681     12.000000
  0.015240 -0.015240  0.106681     12.000000
 -0.015240 -0.106681  0.015240     12.000000
  0.015240  0.106681 -0.015240     12.000000
  0.106681  0.015240  0.015240     12.000000
 -0.106681 -0.015240 -0.015240     12.000000
 -0.015240 -0.015240 -0.106681     12.000000
  0.015240  0.015240  0.106681     12.000000
  0.106681 -0.015240  0.015240     12.000000
 -0.106681  0.015240 -0.015240     12.000000
 -0.015240  0.106681  0.015240     12.000000
  0.015240 -0.106681 -0.015240     12.000000
  0.015240 -0.015240 -0.106681     12.000000
 -0.015240  0.015240  0.106681     12.000000
  0.015240  0.106681  0.015240     12.000000
 -0.015240 -0.106681 -0.015240     12.000000
 -0.106681 -0.015240  0.015240     12.000000
  0.106681  0.015240 -0.015240     12.000000
  0.015240  0.015240 -0.106681     12.000000
 -0.015240 -0.015240  0.106681     12.000000
 -0.106681  0.015240  0.015240     12.000000
  0.106681 -0.015240 -0.015240     12.000000
  0.015240 -0.106681  0.015240     12.000000
 -0.015240  0.106681 -0.015240     12.000000
 -0.045721  0.045721  0.045721     12.000000
  0.045721 -0.045721 -0.045721     12.000000
 -0.045721 -0.045721  0.045721     12.000000
  0.045721  0.045721 -0.045721     12.000000
  0.045721 -0.045721  0.045721     12.000000
 -0.045721  0.045721 -0.045721     12.000000
  0.045721  0.045721  0.045721     12.000000
 -0.045721 -0.045721 -0.045721     12.000000
 -0.076201  0.015240  0.076201     12.000000
  0.076201 -0.015240 -0.076201     12.000000
 -0.015240  0.076201  0.076201     12.000000
  0.015240 -0.076201 -0.076201     12.000000
 -0.076201  0.076201  0.015240     12.000000
  0.076201 -0.076201 -0.015240     12.000000
 -0.015240 -0.076201  0.076201     12.000000
  0.015240  0.076201 -0.076201     12.000000
 -0.076201 -0.015240  0.076201     12.000000
  0.076201  0.015240 -0.076201     12.000000
 -0.076201 -0.076201  0.015240     12.000000
  0.076201  0.076201 -0.015240     12.000000
  0.076201 -0.015240  0.076201     12.000000
 -0.076201  0.015240 -0.076201     12.000000
  0.015240 -0.076201  0.076201     12.000000
 -0.015240  0.076201 -0.076201     12.000000
  0.076201 -0.076201  0.015240     12.000000
 -0.076201  0.076201 -0.015240     12.000000
  0.015240  0.076201  0.076201     12.000000
 -0.015240 -0.076201 -0.076201     12.000000
  0.076201  0.015240  0.076201     12.000000
 -0.076201 -0.015240 -0.076201     12.000000
  0.076201  0.076201  0.015240     12.000000
 -0.076201 -0.076201 -0.015240     12.000000
  0.076201  0.167642 -0.076201     12.000000
 -0.076201 -0.167642  0.076201     12.000000
 -0.167642 -0.076201 -0.076201     12.000000
  0.167642  0.076201  0.076201     12.000000
  0.076201 -0.076201  0.167642     12.000000
 -0.076201  0.076201 -0.167642     12.000000
  0.015240 -0.106681  0.106681     12.000000
 -0.015240  0.106681 -0.106681     12.000000
  0.076201  0.198122 -0.076201     12.000000
 -0.076201 -0.198122  0.076201     12.000000
 -0.106681 -0.106681 -0.015240     12.000000
  0.106681  0.106681  0.015240     12.000000
  0.106681  0.015240  0.106681     12.000000
 -0.106681 -0.015240 -0.106681     12.000000
 -0.015240 -0.106681  0.106681     12.000000
  0.015240  0.106681 -0.106681     12.000000
 -0.076201  0.076201 -0.198122     12.000000
  0.076201 -0.076201  0.198122     12.000000
 -0.198122 -0.076201 -0.076201     12.000000
  0.198122  0.076201  0.076201     12.000000
  0.106681 -0.015240  0.106681     12.000000
 -0.106681  0.015240 -0.106681     12.000000
  0.106681  0.106681 -0.015240     12.000000
 -0.106681 -0.106681  0.015240     12.000000
  0.045721  0.137162 -0.045721     12.000000
 -0.045721 -0.137162  0.045721     12.000000
 -0.137162 -0.045721 -0.045721     12.000000
  0.137162  0.045721  0.045721     12.000000
  0.045721 -0.045721  0.137162     12.000000
 -0.045721  0.045721 -0.137162     12.000000
 -0.137162  0.045721 -0.045721     12.000000
 -0.045721  0.137162 -0.137162     12.000000
  0.045721  0.228603 -0.045721     12.000000
 -0.045721  0.137162  0.045721     12.000000
  0.045721  0.045721  0.137162     12.000000
  0.137162  0.137162  0.045721     12.000000
  0.137162  0.045721  0.137162     12.000000
  0.045721  0.137162  0.045721     12.000000
 -0.045721 -0.137162  0.137162     12.000000
 -0.137162 -0.045721  0.045721     12.000000
 -0.045721  0.045721  0.137162     12.000000
  0.045721 -0.045721  0.228603     12.000000
 -0.228603 -0.045721 -0.045721     12.000000
 -0.137162  0.045721  0.045721     12.000000
 -0.045721  0.137162 -0.045721     12.000000
 -0.137162  0.045721 -0.137162     12.000000
 -0.045721 -0.045721  0.137162     12.000000
 -0.137162 -0.137162  0.045721     12.000000
 -0.045721  0.045721  0.106681     12.000000
  0.045721 -0.045721 -0.106681     12.000000
 -0.045721  0.106681  0.045721     12.000000
  0.045721 -0.106681 -0.045721     12.000000
 -0.106681  0.045721  0.045721     12.000000
  0.106681 -0.045721 -0.045721     12.000000
 -0.045721 -0.045721  0.106681     12.000000
  0.045721  0.045721 -0.106681     12.000000
 -0.106681 -0.045721  0.045721     12.000000
  0.106681  0.045721 -0.045721     12.000000
 -0.045721 -0.106681  0.045721     12.000000
  0.045721  0.106681 -0.045721     12.000000
  0.045721 -0.045721  0.106681     12.000000
 -0.045721  0.045721 -0.106681     12.000000
  0.045721 -0.106681  0.045721     12.000000
 -0.045721  0.106681 -0.045721     12.000000
  0.106681 -0.045721  0.045721     12.000000
 -0.106681  0.045721 -0.045721     12.000000
  0.045721  0.045721  0.106681     12.000000
 -0.045721 -0.045721 -0.106681     12.000000
  0.106681  0.045721  0.045721     12.000000
 -0.106681 -0.045721 -0.045721     12.000000
  0.045721  0.106681  0.045721     12.000000
 -0.045721 -0.106681 -0.045721     12.000000
  0.106681  0.198122 -0.045721     12.000000
 -0.106681 -0.198122  0.045721     12.000000
 -0.198122 -0.045721 -0.106681     12.000000
[...]
  0.000   0.000   0.000   0.000   0.000   0.000   0.000   0.000   0.000   0.000   0.000   0.001   0.000   0.000   0.000   0.000
  0.023  -0.005   0.000   0.000   0.000   0.000   0.000   0.000  -0.001   0.000   0.000   0.000   0.000  -0.001   0.000   0.000
  0.000   0.000   0.001   0.000   0.003   0.000   0.000  -0.001   0.000   0.000   0.000   0.000   0.000   0.000   0.000   0.000
  0.000   0.000   0.000   0.000   0.000   0.000   0.000   0.000   0.000   0.000   0.000   0.000   0.000   0.000   0.000   0.000
  0.000   0.000  -0.004   0.000  -0.003   0.001   0.000   0.001   0.000   0.000   0.000   0.000   0.000   0.000   0.000   0.000
  0.000   0.000   0.000   0.000   0.000   0.000   0.000   0.000   0.000   0.000   0.000   0.000   0.000   0.000   0.000   0.000
  0.000   0.000   0.003   0.000   0.004  -0.001   0.000  -0.001   0.000   0.000   0.000   0.000   0.000   0.000   0.000   0.000
  0.000   0.000   0.000   0.007   0.000   0.000  -0.001   0.000   0.000   0.000   0.000   0.000   0.000   0.000   0.000   0.000
  0.000   0.000   0.003   0.000   0.001  -0.001   0.000   0.000   0.000   0.000   0.000   0.000   0.000   0.000   0.000   0.000
  0.000   0.000  -0.001   0.000   0.000   0.000   0.000   0.000   0.000   0.000   0.000   0.000   0.000   0.000   0.000   0.000
  0.000   0.000   0.000   0.000   0.000   0.000   0.000   0.000   0.000   0.000   0.000   0.000   0.000   0.000   0.000   0.000
  0.000   0.000   0.000   0.000   0.000   0.000   0.000   0.000   0.000   0.000   0.000   0.000   0.000   0.000   0.000   0.000
  0.000   0.000   0.000   0.000   0.000   0.000   0.000   0.000   0.000   0.000   0.000   0.000   0.000   0.000   0.000   0.000
  0.000   0.000   0.000   0.000   0.000   0.000   0.000   0.000   0.000   0.000   0.000   0.000   0.000   0.000   0.000   0.000
  0.000   0.000   0.000   0.000   0.000   0.000   0.000   0.000   0.000   0.000   0.000   0.000   0.000   0.000   0.000   0.000
  0.000   0.000   0.000   0.000  -0.001   0.000   0.000   0.000   0.000   0.000   0.000   0.000   0.000   0.000   0.000   0.000
 total augmentation occupancy for first ion, spin component:           4
  0.035  -0.043   0.000   0.000   0.000   0.000   0.000   0.000  -0.001   0.000   0.000   0.000   0.000  -0.006   0.000   0.004
 -0.043   0.040   0.000   0.000   0.000   0.000   0.000   0.000   0.000   0.000   0.000   0.000   0.000   0.001   0.000  -0.001
  0.000   0.000   0.006   0.000   0.000  -0.006   0.000   0.000   0.000   0.000   0.000   0.000   0.000   0.000   0.000   0.000
  0.000   0.000   0.000   0.006   0.000   0.000  -0.007   0.000   0.000   0.000   0.000   0.000   0.000   0.000   0.000   0.000
  0.000   0.000   0.000   0.000   0.006   0.000   0.000  -0.006   0.000   0.000   0.000   0.000   0.000   0.000   0.000   0.000
  0.000   0.000  -0.006   0.000   0.000   0.001   0.000   0.000   0.000   0.000   0.000   0.000   0.000   0.000   0.000   0.000
  0.000   0.000   0.000  -0.007   0.000   0.000   0.001   0.000   0.000   0.000   0.000   0.000   0.000   0.000   0.000   0.000
  0.000   0.000   0.000   0.000  -0.006   0.000   0.000   0.001   0.000   0.000   0.000   0.000   0.000   0.000   0.000   0.000
 -0.001   0.000   0.000   0.000   0.000   0.000   0.000   0.000   0.008   0.000   0.000   0.000   0.000   0.003   0.000   0.000
  0.000   0.000   0.000   0.000   0.000   0.000   0.000   0.000   0.000   0.008   0.000   0.000   0.000   0.000   0.003   0.000
  0.000   0.000   0.000   0.000   0.000   0.000   0.000   0.000   0.000   0.000   0.006   0.000   0.000   0.000   0.000   0.001
  0.000   0.000   0.000   0.000   0.000   0.000   0.000   0.000   0.000   0.000   0.000   0.008   0.000   0.000   0.000   0.000
  0.000   0.000   0.000   0.000   0.000   0.000   0.000   0.000   0.000   0.000   0.000   0.000   0.005   0.000   0.000   0.000
 -0.006   0.001   0.000   0.000   0.000   0.000   0.000   0.000   0.003   0.000   0.000   0.000   0.000  -0.010   0.000   0.000
  0.000   0.000   0.000   0.000   0.000   0.000   0.000   0.000   0.000   0.003   0.000   0.000   0.000   0.000  -0.010   0.000
  0.004  -0.001   0.000   0.000   0.000   0.000   0.000   0.000   0.000   0.000   0.001   0.000   0.000   0.000   0.000  -0.003
  0.000   0.000   0.000   0.000   0.000   0.000   0.000   0.000   0.000   0.000   0.000   0.003   0.000   0.000   0.000   0.000
  0.000   0.000   0.000   0.000   0.000   0.000   0.000   0.000   0.000   0.000   0.000   0.000   0.001   0.000   0.000   0.000
  0.000   0.000   0.000   0.000   0.001   0.000   0.000   0.000   0.000   0.000   0.000   0.000   0.000   0.000   0.000   0.000
  0.000   0.000   0.000  -0.003   0.000   0.000   0.001   0.000   0.000   0.000   0.000   0.000   0.000   0.000   0.000   0.000
  0.000   0.000   0.004   0.000   0.001  -0.001   0.000  -0.001   0.000   0.000   0.000   0.000   0.000   0.000   0.000   0.000
  0.000   0.000   0.000  -0.006   0.000   0.000   0.002   0.000   0.000   0.000   0.000   0.000   0.000   0.000   0.000   0.000
  0.000   0.000   0.001   0.000   0.004  -0.001   0.000  -0.001   0.000   0.000   0.000   0.000   0.000   0.000   0.000   0.000
  0.000   0.000   0.000   0.000   0.000   0.000   0.000   0.000   0.000   0.000   0.000   0.000   0.000   0.000   0.000   0.000
  0.000   0.000  -0.001   0.000   0.000   0.000   0.000   0.000   0.000   0.000   0.000   0.000   0.000   0.000   0.000   0.000
  0.000   0.000   0.001   0.000   0.000   0.000   0.000   0.000   0.000   0.000   0.000   0.000   0.000   0.000   0.000   0.000
  0.000   0.000   0.000   0.001   0.000   0.000   0.000   0.000   0.000   0.000   0.000   0.000   0.000   0.000   0.000   0.000
  0.000   0.000   0.001   0.000   0.000   0.000   0.000   0.000   0.000   0.000   0.000   0.000   0.000   0.000   0.000   0.000
  0.000   0.000   0.000  -0.001   0.000   0.000   0.000   0.000   0.000   0.000   0.000   0.000   0.000   0.000   0.000   0.000
  0.000   0.000   0.000   0.000   0.001   0.000   0.000   0.000   0.000   0.000   0.000   0.000   0.000   0.000   0.000   0.000
  0.000   0.000   0.000   0.000   0.000   0.000   0.000   0.000   0.000   0.000   0.000   0.000   0.000   0.000   0.000   0.000
  0.000   0.000   0.000   0.000  -0.001   0.000   0.000   0.000   0.000   0.000   0.000   0.000   0.000   0.000   0.000   0.000


------------------------ aborting loop because EDIFF is reached ----------------------------------------


 


 total charge     
 
# of ion     s       p       d       f       tot
------------------------------------------------
  1        2.146   5.957   0.707   2.839  11.649
  2        1.576   3.480   0.000   0.000   5.056
  3        1.576   3.480   0.000   0.000   5.056
------------------------------------------------
tot        5.298  12.917   0.707   2.839  21.761

 


 magnetization (x)
 
# of ion     s       p       d       f       tot
------------------------------------------------
  1       -0.000  -0.000  -0.000  -0.004  -0.004
  2        0.000   0.000   0.000   0.000   0.000
  3        0.000   0.000   0.000   0.000   0.000
------------------------------------------------
tot       -0.000   0.000  -0.000  -0.004  -0.004

 


 magnetization (y)
 
# of ion     s       p       d       f       tot
------------------------------------------------
  1        0.000   0.000   0.000   0.000   0.000
  2       -0.000  -0.000   0.000   0.000  -0.000
  3       -0.000  -0.000   0.000   0.000  -0.000
------------------------------------------------
tot        0.000  -0.000   0.000   0.000   0.000

 


 magnetization (z)
 
# of ion     s       p       d       f       tot
------------------------------------------------
  1        0.005   0.002   0.018   1.332   1.356
  2       -0.002  -0.028   0.000   0.000  -0.029
  3       -0.002  -0.028   0.000   0.000  -0.029
------------------------------------------------
tot        0.002  -0.054   0.018   1.332   1.297

 
    CHARGE:  cpu time    1.31: real time    1.31
    FORLOC:  cpu time    0.00: real time    0.00
    FORNL :  cpu time    1.14: real time    1.14
    STRESS:  cpu time    2.76: real time    2.76
    FORCOR:  cpu time    0.01: real time    0.01
    FORHAR:  cpu time    0.00: real time    0.00
    MIXING:  cpu time    0.00: real time    0.00
    FORVDW:  cpu time    0.00: real time    0.00

  FORCE on cell =-STRESS in cart. coord.  units (eV):
  Direction    XX          YY          ZZ          XY          YZ          ZX
  --------------------------------------------------------------------------------------
  Alpha Z   151.51828   151.51828   151.51828
  Ewald    -692.01109  -692.01109  -692.01109     0.00000     0.00000     0.00000
  Hartree   131.10767   131.10766   131.09350     0.05959     0.00181     0.00121
  E(xc)    -116.04136  -116.04136  -116.03667    -0.00142    -0.00008    -0.00005
  Local     -30.65460   -30.65461   -30.40871    -0.12955    -0.00667    -0.00452
  n-local    61.20607    61.20606    61.27494     0.00729    -0.00189    -0.00198
  augment     3.47511     3.47511     3.34783    -0.00200     0.00331     0.00260
  Kinetic   490.31734   490.31735   490.02676     0.01309     0.00289     0.00246
  Fock        0.00000     0.00000     0.00000     0.00000     0.00000     0.00000
  -------------------------------------------------------------------------------------
  Total      -1.08261    -1.08259    -1.19516    -0.05300    -0.00063    -0.00029
  in kB     -42.43803   -42.43760   -46.85006    -2.07747    -0.02471    -0.01131
  external pressure =      -43.91 kB  Pullay stress =        0.00 kB


 VOLUME and BASIS-vectors are now :
 -----------------------------------------------------------------------------
  energy-cutoff  :      420.00
  volume of cell :       40.87
      direct lattice vectors                 reciprocal lattice vectors
    -2.734000000  0.000000000  2.734000000    -0.182882224 -0.182882224  0.182882224
     0.000000000  2.734000000  2.734000000     0.182882224  0.182882224  0.182882224
    -2.734000000  2.734000000  0.000000000    -0.182882224  0.182882224 -0.182882224

  length of vectors
     3.866459880  3.866459880  3.866459880     0.316761304  0.316761304  0.316761304


 FORCES acting on ions
    electron-ion (+dipol)            ewald-force                    non-local-force                 convergence-correction
 -----------------------------------------------------------------------------------------------
   -.209E-04 0.112E-05 -.310E-05   -.348E-14 -.360E-15 -.197E-14   0.100E-04 -.622E-05 -.699E-05   0.142E-04 0.247E-05 0.880E-05
   -.177E-04 0.243E-03 0.175E-01   0.949E-14 0.960E-14 0.374E-14   0.461E-03 0.440E-03 -.197E-01   -.213E-03 -.465E-03 0.861E-03
   0.225E-04 -.242E-03 -.175E-01   -.551E-14 -.813E-14 -.223E-14   -.457E-03 -.438E-03 0.197E-01   0.205E-03 0.465E-03 -.868E-03
 -----------------------------------------------------------------------------------------------
   -.161E-04 0.240E-05 0.630E-05   0.499E-15 0.111E-14 -.464E-15   0.139E-04 -.420E-05 -.766E-05   0.620E-05 0.245E-05 0.953E-06
 
 
 POSITION                                       TOTAL-FORCE (eV/Angst)
 -----------------------------------------------------------------------------------
      0.00000      0.00000      0.00000         0.000002     -0.000003     -0.000001
     -4.10100      4.10100      4.10100         0.000229      0.000218     -0.001298
     -1.36700      1.36700      1.36700        -0.000231     -0.000215      0.001299
 -----------------------------------------------------------------------------------
    total drift:                                0.000004      0.000001      0.000000


--------------------------------------------------------------------------------------------------------



  FREE ENERGIE OF THE ION-ELECTRON SYSTEM (eV)
  ---------------------------------------------------
  free  energy   TOTEN  =        15.45896918 eV

  energy  without entropy=       15.45896918  energy(sigma->0) =       15.45896918
 


--------------------------------------------------------------------------------------------------------


    POTLOK:  cpu time    1.09: real time    1.10


--------------------------------------------------------------------------------------------------------


 writing wavefunctions
     LOOP+:  cpu time  383.56: real time  562.30
    4ORBIT:  cpu time    0.00: real time    0.00
 


 orbital moment (x)
 
 # of ion     p       d       f       tot
 ------------------------------------------------
  1         0.000   0.000  -1.202  -1.203
  2         0.000   0.000   0.000   0.000
  3         0.000   0.000   0.000   0.000
 ------------------------------------------------
            0.000   0.000  -1.202  -1.202
 


 orbital moment (y)
 
 # of ion     p       d       f       tot
 ------------------------------------------------
  1         0.000   0.000  -1.202  -1.203
  2         0.000   0.000   0.000   0.000
  3         0.000   0.000   0.000   0.000
 ------------------------------------------------
            0.000   0.000  -1.202  -1.202
 


 orbital moment (z)
 
 # of ion     p       d       f       tot
 ------------------------------------------------
  1         0.000   0.000  -0.007  -0.007
  2         0.000   0.000   0.000   0.000
  3         0.000   0.000   0.000   0.000
 ------------------------------------------------
            0.000   0.000  -0.007  -0.007

 Spin-Orbit-Coupling matrix elements

 Ion:    1  E_soc:     -6.1994269
 l=   1
     0.0000000    -0.8961106    -0.8965499
    -0.8961106     0.0000000    -0.8961105
    -0.8965499    -0.8961105     0.0000000
 l=   2
     0.0000000    -0.0011009     0.0000000    -0.0011009    -0.0038099
    -0.0011009     0.0000000    -0.0028332    -0.0011250    -0.0009459
     0.0000000    -0.0028332     0.0000000    -0.0028332     0.0000000
    -0.0011009    -0.0011250    -0.0028332     0.0000000    -0.0009459
    -0.0038099    -0.0009459     0.0000000    -0.0009459     0.0000000
 l=   3
     0.0000000    -0.0062612     0.0000000     0.0000000     0.0000000    -0.0212571    -0.0939674
    -0.0062612     0.0000000    -0.0110424     0.0000000    -0.0110424    -0.0179234    -0.0062612
     0.0000000    -0.0110424     0.0000000    -0.0728042    -0.0138580    -0.0238839     0.0000000
     0.0000000     0.0000000    -0.0728042     0.0000000    -0.0728047     0.0000000     0.0000000
     0.0000000    -0.0110424    -0.0138580    -0.0728047     0.0000000    -0.0238843     0.0000000
    -0.0212571    -0.0179234    -0.0238839     0.0000000    -0.0238843     0.0000000    -0.0212572
    -0.0939674    -0.0062612     0.0000000     0.0000000     0.0000000    -0.0212572     0.0000000

 Ion:    2  E_soc:     -0.0010727
 l=   1
     0.0000000    -0.0001763    -0.0001838
    -0.0001763     0.0000000    -0.0001763
    -0.0001838    -0.0001763     0.0000000
 l=   2
     0.0000000     0.0000000     0.0000000     0.0000000     0.0000000
     0.0000000     0.0000000     0.0000000     0.0000000     0.0000000
     0.0000000     0.0000000     0.0000000     0.0000000     0.0000000
     0.0000000     0.0000000     0.0000000     0.0000000     0.0000000
     0.0000000     0.0000000     0.0000000     0.0000000     0.0000000
 l=   3
     0.0000000     0.0000000     0.0000000     0.0000000     0.0000000     0.0000000     0.0000000
     0.0000000     0.0000000     0.0000000     0.0000000     0.0000000     0.0000000     0.0000000
     0.0000000     0.0000000     0.0000000     0.0000000     0.0000000     0.0000000     0.0000000
     0.0000000     0.0000000     0.0000000     0.0000000     0.0000000     0.0000000     0.0000000
     0.0000000     0.0000000     0.0000000     0.0000000     0.0000000     0.0000000     0.0000000
     0.0000000     0.0000000     0.0000000     0.0000000     0.0000000     0.0000000     0.0000000
     0.0000000     0.0000000     0.0000000     0.0000000     0.0000000     0.0000000     0.0000000

 Ion:    3  E_soc:     -0.0010727
 l=   1
     0.0000000    -0.0001763    -0.0001838
    -0.0001763     0.0000000    -0.0001763
    -0.0001838    -0.0001763     0.0000000
 l=   2
     0.0000000     0.0000000     0.0000000     0.0000000     0.0000000
     0.0000000     0.0000000     0.0000000     0.0000000     0.0000000
     0.0000000     0.0000000     0.0000000     0.0000000     0.0000000
     0.0000000     0.0000000     0.0000000     0.0000000     0.0000000
     0.0000000     0.0000000     0.0000000     0.0000000     0.0000000
 l=   3
     0.0000000     0.0000000     0.0000000     0.0000000     0.0000000     0.0000000     0.0000000
     0.0000000     0.0000000     0.0000000     0.0000000     0.0000000     0.0000000     0.0000000
     0.0000000     0.0000000     0.0000000     0.0000000     0.0000000     0.0000000     0.0000000
     0.0000000     0.0000000     0.0000000     0.0000000     0.0000000     0.0000000     0.0000000
     0.0000000     0.0000000     0.0000000     0.0000000     0.0000000     0.0000000     0.0000000
     0.0000000     0.0000000     0.0000000     0.0000000     0.0000000     0.0000000     0.0000000
     0.0000000     0.0000000     0.0000000     0.0000000     0.0000000     0.0000000     0.0000000
 


 total charge     
 
# of ion     s       p       d       f       tot
------------------------------------------------
  1        2.146   5.957   0.707   2.839  11.649
  2        1.576   3.480   0.000   0.000   5.056
  3        1.576   3.480   0.000   0.000   5.056
------------------------------------------------
tot        5.298  12.917   0.707   2.839  21.761

 


 magnetization (x)
 
# of ion     s       p       d       f       tot
------------------------------------------------
  1       -0.000  -0.000  -0.000  -0.004  -0.004
  2        0.000   0.000   0.000   0.000   0.000
  3        0.000   0.000   0.000   0.000   0.000
------------------------------------------------
tot       -0.000   0.000  -0.000  -0.004  -0.004

 


 magnetization (y)
 
# of ion     s       p       d       f       tot
------------------------------------------------
  1        0.000   0.000   0.000   0.000   0.000
  2       -0.000  -0.000   0.000   0.000  -0.000
  3       -0.000  -0.000   0.000   0.000  -0.000
------------------------------------------------
tot        0.000  -0.000   0.000   0.000   0.000

 


 magnetization (z)
 
# of ion     s       p       d       f       tot
------------------------------------------------
  1        0.005   0.002   0.018   1.332   1.356
  2       -0.002  -0.028   0.000   0.000  -0.029
  3       -0.002  -0.028   0.000   0.000  -0.029
------------------------------------------------
tot        0.002  -0.054   0.018   1.332   1.297

 
 BZINTS: Fermi energy:  9.556017; 26.000000 electrons
         Band energy: -94.215901;  BLOECHL correction: -0.002968
 BZINTS: Fermi energy:  9.556017; 26.000000 electrons
         Band energy: -94.215901;  BLOECHL correction: -0.002968
 BZINTS: Fermi energy:  9.556017; 26.000000 electrons
         Band energy: -94.215901;  BLOECHL correction: -0.002968
 BZINTS: Fermi energy:  9.556017; 26.000000 electrons
         Band energy: -94.215901;  BLOECHL correction: -0.002968

 total amount of memory used by VASP on root node   123294. kBytes
========================================================================

   base      :      30000. kBytes
   nonl-proj :      55302. kBytes
   fftplans  :        501. kBytes
   grid      :       1906. kBytes
   one-center:        196. kBytes
   wavefun   :      35389. kBytes
 
  
  
 General timing and accounting informations for this job:
 ========================================================
  
                  Total CPU time used (sec):      441.926
                            User time (sec):      400.886
                          System time (sec):       41.040
                         Elapsed time (sec):      623.787
  
                   Maximum memory used (kb):      234756.
                   Average memory used (kb):           0.
  
                          Minor page faults:        40824
                          Major page faults:           55
                 Voluntary context switches:         3018
