    3    3    1    1
  0.1362399E+02  0.3866460E-09  0.3866460E-09  0.3866460E-09  0.5000000E-15
  1.000000000000000E-004
  CAR 
 LIO                                     
   26  864   36
 
  0.8333333E-01  0.8333333E-01  0.8333333E-01  0.1157407E-02
   1      -34.582344
   2      -33.951248
   3      -15.453479
   4      -15.222197
   5      -10.342702
   6      -10.333896
   7       -8.938003
   8       -8.905549
   9       -7.347914
  10       -7.147109
  11       -7.014675
  12       -6.837490
  13        2.684788
  14        2.695130
  15        2.725142
  16        2.729751
  17        2.814930
  18        2.846827
  19        5.223474
  20        5.259393
  21        5.362291
  22        5.394798
  23        5.439168
  24        5.478376
  25        9.603912
  26        9.650979
  27        9.779943
  28       10.171631
  29       10.203899
  30       10.284061
  31       10.834266
  32       10.908823
  33       10.943897
  34       11.042181
  35       11.217419
  36       11.327778
 
 -0.8333333E-01 -0.8333333E-01 -0.8333333E-01  0.1157407E-02
   1      -34.582344
   2      -33.951249
   3      -15.453479
   4      -15.222197
   5      -10.342702
   6      -10.333896
   7       -8.938003
   8       -8.905549
   9       -7.347914
  10       -7.147110
  11       -7.014674
  12       -6.837490
  13        2.684788
  14        2.695130
  15        2.725142
  16        2.729751
  17        2.814930
  18        2.846827
  19        5.223474
  20        5.259393
  21        5.362291
  22        5.394798
  23        5.439168
  24        5.478376
  25        9.603912
  26        9.650979
  27        9.779943
  28       10.171631
  29       10.203900
  30       10.284061
  31       10.834266
  32       10.908823
  33       10.943895
  34       11.042170
  35       11.217561
  36       11.322747
 
  0.8333333E-01  0.0000000E+00  0.0000000E+00  0.1157407E-02
   1      -34.582344
   2      -33.951248
   3      -15.453499
   4      -15.222177
   5      -10.342716
   6      -10.333893
   7       -8.938000
   8       -8.905548
   9       -7.347514
  10       -7.147501
  11       -7.014831
  12       -6.837336
  13        2.684840
  14        2.695111
  15        2.725147
  16        2.729810
  17        2.814890
  18        2.846777
  19        5.223419
  20        5.259472
  21        5.362191
  22        5.394718
  23        5.439412
  24        5.478293
  25        9.603996
  26        9.650883
  27        9.779894
  28       10.171846
  29       10.203675
  30       10.284135
  31       10.834034
  32       10.909041
  33       10.943899
  34       11.042030
  35       11.218495
  36       11.327890
 
 -0.8333333E-01  0.0000000E+00  0.0000000E+00  0.1157407E-02
   1      -34.582344
   2      -33.951248
   3      -15.453500
   4      -15.222177
   5      -10.342716
   6      -10.333893
   7       -8.938000
   8       -8.905548
   9       -7.347514
  10       -7.147501
  11       -7.014831
  12       -6.837336
  13        2.684840
  14        2.695111
  15        2.725147
  16        2.729810
  17        2.814890
  18        2.846777
  19        5.223420
  20        5.259472
  21        5.362190
  22        5.394718
  23        5.439412
  24        5.478293
  25        9.603996
  26        9.650883
  27        9.779894
  28       10.171846
  29       10.203674
  30       10.284135
  31       10.834034
  32       10.909041
  33       10.943897
  34       11.042035
  35       11.217479
  36       11.328898
 
  0.0000000E+00  0.0000000E+00 -0.8333333E-01  0.1157407E-02
   1      -34.582344
   2      -33.951248
   3      -15.453464
   4      -15.222214
   5      -10.342718
   6      -10.333871
   7       -8.938003
   8       -8.905548
   9       -7.348267
  10       -7.146666
  11       -7.014542
  12       -6.837721
  13        2.684762
  14        2.695164
  15        2.725131
  16        2.729744
  17        2.814933
  18        2.846833
  19        5.223499
  20        5.259340
  21        5.362374
  22        5.394848
  23        5.438995
  24        5.478444
  25        9.603860
  26        9.651025
  27        9.779980
  28       10.171340
  29       10.204181
  30       10.284024
  31       10.834423
  32       10.908571
  33       10.943960
  34       11.042269
  35       11.217395
  36       11.324103
 
  0.0000000E+00  0.0000000E+00  0.8333333E-01  0.1157407E-02
   1      -34.582344
   2      -33.951248
   3      -15.453464
   4      -15.222214
   5      -10.342718
   6      -10.333871
   7       -8.938003
   8       -8.905548
   9       -7.348267
  10       -7.146667
  11       -7.014542
  12       -6.837721
  13        2.684762
  14        2.695164
  15        2.725130
  16        2.729744
  17        2.814934
  18        2.846834
  19        5.223500
  20        5.259340
  21        5.362373
  22        5.394848
  23        5.438995
  24        5.478444
  25        9.603860
  26        9.651025
  27        9.779980
  28       10.171340
  29       10.204181
  30       10.284024
  31       10.834423
  32       10.908572
  33       10.943961
  34       11.042262
  35       11.217444
  36       11.323077
 
  0.0000000E+00  0.8333333E-01  0.0000000E+00  0.1157407E-02
   1      -34.582344
   2      -33.951248
   3      -15.453447
   4      -15.222237
   5      -10.342718
   6      -10.333857
   7       -8.938002
   8       -8.905546
   9       -7.348678
  10       -7.146043
  11       -7.014431
  12       -6.838055
  13        2.684740
  14        2.695243
  15        2.725083
  16        2.729781
  17        2.814926
  18        2.846799
  19        5.223534
  20        5.259243
  21        5.362492
  22        5.394936
  23        5.438775
  24        5.478522
  25        9.603753
  26        9.651112
  27        9.780024
  28       10.170974
  29       10.204506
  30       10.284014
  31       10.834578
  32       10.908194
  33       10.944130
  34       11.042338
  35       11.217331
  36       11.324077
 
  0.0000000E+00 -0.8333333E-01  0.0000000E+00  0.1157407E-02
   1      -34.582344
   2      -33.951248
   3      -15.453447
   4      -15.222237
   5      -10.342719
   6      -10.333857
   7       -8.938002
   8       -8.905546
   9       -7.348678
  10       -7.146043
  11       -7.014431
  12       -6.838055
  13        2.684740
  14        2.695243
  15        2.725083
  16        2.729781
  17        2.814926
  18        2.846799
  19        5.223534
  20        5.259243
  21        5.362492
  22        5.394936
  23        5.438775
  24        5.478522
  25        9.603752
  26        9.651112
  27        9.780024
  28       10.170974
  29       10.204506
  30       10.284014
  31       10.834578
  32       10.908194
  33       10.944129
  34       11.042348
  35       11.217245
  36       11.322354
 
  0.2500000E+00  0.8333333E-01  0.8333333E-01  0.1157407E-02
   1      -34.558648
   2      -33.926182
   3      -15.610263
   4      -15.388989
   5      -10.644400
   6      -10.605153
   7       -9.179846
   8       -9.156741
   9       -7.363934
  10       -7.065083
  11       -6.612055
  12       -6.389959
  13        2.953305
  14        2.988671
  15        3.022233
  16        3.059603
  17        3.460837
  18        3.505818
  19        4.738395
  20        4.797330
  21        5.169682
  22        5.236847
  23        5.613573
  24        5.695669
  25        9.475325
  26        9.633902
  27        9.717456
  28       10.010717
  29       10.090891
  30       10.188188
  31       10.617172
  32       10.761992
  33       10.867937
  34       10.888327
  35       11.032583
  36       11.211359
 
 -0.2500000E+00 -0.8333333E-01 -0.8333333E-01  0.1157407E-02
   1      -34.558648
   2      -33.926182
   3      -15.610263
   4      -15.388989
   5      -10.644400
   6      -10.605153
   7       -9.179845
   8       -9.156742
   9       -7.363934
  10       -7.065083
  11       -6.612055
  12       -6.389959
  13        2.953305
  14        2.988671
  15        3.022233
  16        3.059603
  17        3.460837
  18        3.505819
  19        4.738396
  20        4.797331
  21        5.169682
  22        5.236847
  23        5.613572
  24        5.695669
  25        9.475326
  26        9.633902
  27        9.717456
  28       10.010717
  29       10.090891
  30       10.188188
  31       10.617172
  32       10.761992
  33       10.867931
  34       10.888381
  35       11.032416
  36       11.214419
 
  0.8333333E-01  0.2500000E+00  0.8333333E-01  0.1157407E-02
   1      -34.558648
   2      -33.926181
   3      -15.610010
   4      -15.389275
   5      -10.644411
   6      -10.605018
   7       -9.179791
   8       -9.156812
   9       -7.365712
  10       -7.062928
  11       -6.611960
  12       -6.390503
  13        2.953285
  14        2.988652
  15        3.022233
  16        3.059592
  17        3.460860
  18        3.505838
  19        4.738405
  20        4.797354
  21        5.169765
  22        5.236735
  23        5.613533
  24        5.695691
  25        9.475109
  26        9.634138
  27        9.717979
  28       10.009969
  29       10.090923
  30       10.187880
  31       10.618281
  32       10.762451
  33       10.868656
  34       10.887393
  35       11.031389
  36       11.186193
 
 -0.8333333E-01 -0.2500000E+00 -0.8333333E-01  0.1157407E-02
   1      -34.558648
   2      -33.926181
   3      -15.610010
   4      -15.389275
   5      -10.644411
   6      -10.605017
   7       -9.179792
   8       -9.156810
   9       -7.365712
  10       -7.062928
  11       -6.611960
  12       -6.390502
  13        2.953285
  14        2.988652
  15        3.022232
  16        3.059592
  17        3.460860
  18        3.505838
  19        4.738405
  20        4.797354
  21        5.169765
  22        5.236735
  23        5.613533
  24        5.695691
  25        9.475109
  26        9.634138
  27        9.717979
  28       10.009969
  29       10.090923
  30       10.187879
  31       10.618282
  32       10.762451
  33       10.868619
  34       10.887269
  35       11.030903
  36       11.186930
 
  0.8333333E-01  0.8333333E-01  0.2500000E+00  0.1157407E-02
   1      -34.558644
   2      -33.926183
   3      -15.614987
   4      -15.383850
   5      -10.636552
   6      -10.616618
   7       -9.184991
   8       -9.149211
   9       -7.286762
  10       -7.151468
  11       -6.622774
  12       -6.369438
  13        2.955198
  14        2.986649
  15        3.022223
  16        3.058968
  17        3.463023
  18        3.504659
  19        4.735433
  20        4.798662
  21        5.161693
  22        5.241529
  23        5.626550
  24        5.688812
  25        9.516568
  26        9.601258
  27        9.669787
  28       10.063762
  29       10.123194
  30       10.156863
  31       10.613503
  32       10.786782
  33       10.804584
  34       10.885853
  35       11.041234
  36       11.177387
 
 -0.8333333E-01 -0.8333333E-01 -0.2500000E+00  0.1157407E-02
   1      -34.558644
   2      -33.926183
   3      -15.614987
   4      -15.383850
   5      -10.636552
   6      -10.616618
   7       -9.184991
   8       -9.149211
   9       -7.286762
  10       -7.151468
  11       -6.622774
  12       -6.369438
  13        2.955198
  14        2.986649
  15        3.022223
  16        3.058969
  17        3.463022
  18        3.504659
  19        4.735433
  20        4.798662
  21        5.161694
  22        5.241530
  23        5.626551
  24        5.688812
  25        9.516568
  26        9.601258
  27        9.669787
  28       10.063762
  29       10.123194
  30       10.156863
  31       10.613503
  32       10.786782
  33       10.804584
  34       10.885854
  35       11.041072
  36       11.177934
 
  0.8333333E-01  0.0000000E+00 -0.1666667E+00  0.1157407E-02
   1      -34.558648
   2      -33.926182
   3      -15.610137
   4      -15.389122
   5      -10.644397
   6      -10.605103
   7       -9.179818
   8       -9.156768
   9       -7.364854
  10       -7.064119
  11       -6.611921
  12       -6.390176
  13        2.953307
  14        2.988638
  15        3.022230
  16        3.059561
  17        3.460856
  18        3.505857
  19        4.738407
  20        4.797346
  21        5.169707
  22        5.236812
  23        5.613550
  24        5.695661
  25        9.475217
  26        9.634196
  27        9.717591
  28       10.010449
  29       10.090711
  30       10.188095
  31       10.617855
  32       10.761908
  33       10.869001
  34       10.887447
  35       11.031043
  36       11.184777
 
 -0.8333333E-01  0.0000000E+00  0.1666667E+00  0.1157407E-02
   1      -34.558648
   2      -33.926182
   3      -15.610137
   4      -15.389122
   5      -10.644397
   6      -10.605102
   7       -9.179819
   8       -9.156767
   9       -7.364855
  10       -7.064120
  11       -6.611922
  12       -6.390176
  13        2.953306
  14        2.988638
  15        3.022230
  16        3.059561
  17        3.460857
  18        3.505858
  19        4.738407
  20        4.797346
  21        5.169706
  22        5.236812
  23        5.613550
  24        5.695661
  25        9.475217
  26        9.634196
  27        9.717591
  28       10.010449
  29       10.090711
  30       10.188095
  31       10.617855
  32       10.761908
  33       10.868997
  34       10.887451
  35       11.031013
  36       11.186875
 
  0.2500000E+00  0.1666667E+00  0.1666667E+00  0.1157407E-02
   1      -34.558648
   2      -33.926182
   3      -15.610209
   4      -15.389039
   5      -10.644378
   6      -10.605158
   7       -9.179843
   8       -9.156740
   9       -7.364318
  10       -7.064776
  11       -6.611963
  12       -6.389992
  13        2.953311
  14        2.988638
  15        3.022231
  16        3.059562
  17        3.460854
  18        3.505852
  19        4.738405
  20        4.797338
  21        5.169687
  22        5.236837
  23        5.613562
  24        5.695656
  25        9.475255
  26        9.634162
  27        9.717449
  28       10.010703
  29       10.090673
  30       10.188165
  31       10.617544
  32       10.761798
  33       10.868798
  34       10.887727
  35       11.031152
  36       11.187221
 
 -0.2500000E+00 -0.1666667E+00 -0.1666667E+00  0.1157407E-02
   1      -34.558648
   2      -33.926182
   3      -15.610209
   4      -15.389039
   5      -10.644377
   6      -10.605159
   7       -9.179842
   8       -9.156741
   9       -7.364318
  10       -7.064776
  11       -6.611963
  12       -6.389992
  13        2.953311
  14        2.988639
  15        3.022231
  16        3.059562
  17        3.460854
  18        3.505852
  19        4.738406
  20        4.797338
  21        5.169687
  22        5.236837
  23        5.613562
  24        5.695657
  25        9.475255
  26        9.634162
  27        9.717449
  28       10.010703
  29       10.090673
  30       10.188165
  31       10.617544
  32       10.761798
  33       10.868797
  34       10.887728
  35       11.031106
  36       11.185021
 
  0.8333333E-01 -0.1666667E+00  0.0000000E+00  0.1157407E-02
   1      -34.558644
   2      -33.926182
   3      -15.614955
   4      -15.383914
   5      -10.636567
   6      -10.616574
   7       -9.184972
   8       -9.149199
   9       -7.287635
  10       -7.150300
  11       -6.622804
  12       -6.369739
  13        2.955268
  14        2.986669
  15        3.022264
  16        3.058939
  17        3.462992
  18        3.504628
  19        4.735412
  20        4.798654
  21        5.161728
  22        5.241559
  23        5.626534
  24        5.688807
  25        9.516207
  26        9.601738
  27        9.669621
  28       10.063134
  29       10.123153
  30       10.157426
  31       10.613539
  32       10.786529
  33       10.804812
  34       10.885568
  35       11.041267
  36       11.177715
 
 -0.8333333E-01  0.1666667E+00  0.0000000E+00  0.1157407E-02
   1      -34.558644
   2      -33.926182
   3      -15.614955
   4      -15.383914
   5      -10.636567
   6      -10.616574
   7       -9.184972
   8       -9.149199
   9       -7.287635
  10       -7.150300
  11       -6.622804
  12       -6.369739
  13        2.955268
  14        2.986669
  15        3.022264
  16        3.058939
  17        3.462992
  18        3.504628
  19        4.735412
  20        4.798654
  21        5.161728
  22        5.241559
  23        5.626534
  24        5.688807
  25        9.516207
  26        9.601738
  27        9.669621
  28       10.063134
  29       10.123153
  30       10.157426
  31       10.613539
  32       10.786529
  33       10.804812
  34       10.885567
  35       11.041304
  36       11.177877
 
  0.0000000E+00  0.1666667E+00 -0.8333333E-01  0.1157407E-02
   1      -34.558649
   2      -33.926181
   3      -15.609976
   4      -15.389314
   5      -10.644419
   6      -10.604992
   7       -9.179770
   8       -9.156839
   9       -7.365916
  10       -7.062667
  11       -6.611951
  12       -6.390575
  13        2.953275
  14        2.988671
  15        3.022215
  16        3.059596
  17        3.460865
  18        3.505838
  19        4.738404
  20        4.797359
  21        5.169780
  22        5.236711
  23        5.613527
  24        5.695702
  25        9.475131
  26        9.634000
  27        9.718153
  28       10.009881
  29       10.091046
  30       10.187696
  31       10.618404
  32       10.762715
  33       10.868290
  34       10.887314
  35       11.030995
  36       11.186755
 
  0.0000000E+00 -0.1666667E+00  0.8333333E-01  0.1157407E-02
   1      -34.558649
   2      -33.926181
   3      -15.609976
   4      -15.389313
   5      -10.644418
   6      -10.604992
   7       -9.179769
   8       -9.156840
   9       -7.365916
  10       -7.062667
  11       -6.611951
  12       -6.390575
  13        2.953275
  14        2.988670
  15        3.022216
  16        3.059596
  17        3.460865
  18        3.505838
  19        4.738404
  20        4.797359
  21        5.169780
  22        5.236711
  23        5.613526
  24        5.695702
  25        9.475131
  26        9.634000
  27        9.718153
  28       10.009881
  29       10.091046
  30       10.187696
  31       10.618404
  32       10.762714
  33       10.868304
  34       10.887314
  35       11.030983
  36       11.187225
 
  0.1666667E+00  0.0000000E+00 -0.8333333E-01  0.1157407E-02
   1      -34.558648
   2      -33.926182
   3      -15.610229
   4      -15.389027
   5      -10.644407
   6      -10.605128
   7       -9.179824
   8       -9.156769
   9       -7.364139
  10       -7.064825
  11       -6.612045
  12       -6.390027
  13        2.953295
  14        2.988687
  15        3.022218
  16        3.059608
  17        3.460841
  18        3.505819
  19        4.738396
  20        4.797337
  21        5.169697
  22        5.236827
  23        5.613562
  24        5.695676
  25        9.475343
  26        9.633762
  27        9.717631
  28       10.010638
  29       10.091011
  30       10.188005
  31       10.617294
  32       10.762250
  33       10.867601
  34       10.888331
  35       11.031850
  36       11.186462
 
 -0.1666667E+00  0.0000000E+00  0.8333333E-01  0.1157407E-02
   1      -34.558648
   2      -33.926182
   3      -15.610229
   4      -15.389027
   5      -10.644408
   6      -10.605127
   7       -9.179824
   8       -9.156769
   9       -7.364139
  10       -7.064825
  11       -6.612045
  12       -6.390027
  13        2.953295
  14        2.988687
  15        3.022218
  16        3.059608
  17        3.460842
  18        3.505819
  19        4.738396
  20        4.797338
  21        5.169696
  22        5.236826
  23        5.613562
  24        5.695676
  25        9.475343
  26        9.633762
  27        9.717631
  28       10.010638
  29       10.091011
  30       10.188005
  31       10.617294
  32       10.762250
  33       10.867598
  34       10.888314
  35       11.031179
  36       11.185948
 
 -0.1666667E+00 -0.1666667E+00 -0.2500000E+00  0.1157407E-02
   1      -34.558644
   2      -33.926183
   3      -15.615024
   4      -15.383807
   5      -10.636505
   6      -10.616684
   7       -9.184995
   8       -9.149211
   9       -7.285968
  10       -7.152339
  11       -6.622772
  12       -6.369347
  13        2.955191
  14        2.986669
  15        3.022206
  16        3.058975
  17        3.463025
  18        3.504653
  19        4.735432
  20        4.798661
  21        5.161690
  22        5.241533
  23        5.626555
  24        5.688810
  25        9.516743
  26        9.600830
  27        9.669990
  28       10.063983
  29       10.123171
  30       10.156791
  31       10.613325
  32       10.786767
  33       10.804396
  34       10.886155
  35       11.041001
  36       11.179208
 
  0.1666667E+00  0.1666667E+00  0.2500000E+00  0.1157407E-02
   1      -34.558644
   2      -33.926183
   3      -15.615024
   4      -15.383807
   5      -10.636505
   6      -10.616684
   7       -9.184994
   8       -9.149211
   9       -7.285968
  10       -7.152339
  11       -6.622772
  12       -6.369347
  13        2.955191
  14        2.986669
  15        3.022206
  16        3.058974
  17        3.463025
  18        3.504653
  19        4.735432
  20        4.798661
  21        5.161690
  22        5.241533
  23        5.626556
  24        5.688810
  25        9.516743
  26        9.600830
  27        9.669990
  28       10.063983
  29       10.123171
  30       10.156791
  31       10.613325
  32       10.786767
  33       10.804398
  34       10.886157
  35       11.040995
  36       11.177235
 
  0.1666667E+00  0.2500000E+00  0.1666667E+00  0.1157407E-02
   1      -34.558649
   2      -33.926182
   3      -15.610092
   4      -15.389171
   5      -10.644392
   6      -10.605082
   7       -9.179796
   8       -9.156813
   9       -7.365015
  10       -7.063889
  11       -6.611983
  12       -6.390180
  13        2.953269
  14        2.988696
  15        3.022173
  16        3.059581
  17        3.460878
  18        3.505849
  19        4.738408
  20        4.797358
  21        5.169752
  22        5.236745
  23        5.613529
  24        5.695689
  25        9.475261
  26        9.633782
  27        9.718029
  28       10.010434
  29       10.091171
  30       10.187449
  31       10.617960
  32       10.762736
  33       10.867629
  34       10.887958
  35       11.032342
  36       11.186729
 
 -0.1666667E+00 -0.2500000E+00 -0.1666667E+00  0.1157407E-02
   1      -34.558649
   2      -33.926182
   3      -15.610092
   4      -15.389172
   5      -10.644392
   6      -10.605082
   7       -9.179797
   8       -9.156812
   9       -7.365015
  10       -7.063889
  11       -6.611983
  12       -6.390180
  13        2.953269
  14        2.988696
  15        3.022172
  16        3.059580
  17        3.460878
  18        3.505849
  19        4.738407
  20        4.797358
  21        5.169752
  22        5.236745
  23        5.613529
  24        5.695689
  25        9.475261
  26        9.633782
  27        9.718029
  28       10.010434
  29       10.091171
  30       10.187449
  31       10.617960
  32       10.762736
  33       10.867631
  34       10.887947
  35       11.031317
  36       11.185034
 
  0.0000000E+00  0.8333333E-01 -0.1666667E+00  0.1157407E-02
   1      -34.558649
   2      -33.926181
   3      -15.610020
   4      -15.389255
   5      -10.644411
   6      -10.605026
   7       -9.179772
   8       -9.156841
   9       -7.365550
  10       -7.063229
  11       -6.611943
  12       -6.390369
  13        2.953264
  14        2.988696
  15        3.022171
  16        3.059579
  17        3.460881
  18        3.505854
  19        4.738408
  20        4.797364
  21        5.169772
  22        5.236715
  23        5.613521
  24        5.695698
  25        9.475228
  26        9.633818
  27        9.718168
  28       10.010173
  29       10.091210
  30       10.187380
  31       10.618272
  32       10.762851
  33       10.867813
  34       10.887690
  35       11.032207
  36       11.200594
 
  0.0000000E+00 -0.8333333E-01  0.1666667E+00  0.1157407E-02
   1      -34.558649
   2      -33.926181
   3      -15.610020
   4      -15.389255
   5      -10.644411
   6      -10.605026
   7       -9.179772
   8       -9.156842
   9       -7.365550
  10       -7.063229
  11       -6.611943
  12       -6.390369
  13        2.953264
  14        2.988696
  15        3.022171
  16        3.059580
  17        3.460881
  18        3.505855
  19        4.738408
  20        4.797364
  21        5.169772
  22        5.236715
  23        5.613520
  24        5.695698
  25        9.475228
  26        9.633818
  27        9.718168
  28       10.010173
  29       10.091209
  30       10.187380
  31       10.618272
  32       10.762851
  33       10.867872
  34       10.887701
  35       11.032386
  36       11.208933
 
 -0.1666667E+00  0.8333333E-01  0.0000000E+00  0.1157407E-02
   1      -34.558644
   2      -33.926182
   3      -15.615084
   4      -15.383767
   5      -10.636458
   6      -10.616746
   7       -9.184989
   8       -9.149192
   9       -7.285009
  10       -7.153161
  11       -6.622775
  12       -6.369479
  13        2.955244
  14        2.986745
  15        3.022202
  16        3.058975
  17        3.462993
  18        3.504606
  19        4.735404
  20        4.798651
  21        5.161714
  22        5.241573
  23        5.626546
  24        5.688813
  25        9.516855
  26        9.600282
  27        9.670204
  28       10.063813
  29       10.123179
  30       10.157198
  31       10.612917
  32       10.786379
  33       10.804169
  34       10.886704
  35       11.040836
  36       11.177972
 
  0.1666667E+00 -0.8333333E-01  0.0000000E+00  0.1157407E-02
   1      -34.558644
   2      -33.926182
   3      -15.615084
   4      -15.383767
   5      -10.636458
   6      -10.616747
   7       -9.184989
   8       -9.149192
   9       -7.285009
  10       -7.153161
  11       -6.622775
  12       -6.369479
  13        2.955244
  14        2.986746
  15        3.022202
  16        3.058975
  17        3.462992
  18        3.504605
  19        4.735404
  20        4.798651
  21        5.161714
  22        5.241573
  23        5.626546
  24        5.688814
  25        9.516855
  26        9.600282
  27        9.670204
  28       10.063813
  29       10.123179
  30       10.157198
  31       10.612918
  32       10.786379
  33       10.804172
  34       10.886726
  35       11.040911
  36       11.183340
 
  0.4166667E+00  0.8333333E-01  0.8333333E-01  0.1157407E-02
   1      -34.521915
   2      -33.887306
   3      -15.848182
   4      -15.632891
   5      -10.960667
   6      -10.893950
   7       -9.618112
   8       -9.583017
   9       -7.423345
  10       -7.168031
  11       -5.811335
  12       -5.606718
  13        3.386514
  14        3.412145
  15        3.449624
  16        3.471315
  17        4.201004
  18        4.242513
  19        4.480595
  20        4.519887
  21        5.166977
  22        5.225940
  23        5.683485
  24        5.756355
  25        9.161770
  26        9.382438
  27        9.624459
  28        9.748412
  29        9.948469
  30       10.095499
  31       10.291206
  32       10.356663
  33       10.727159
  34       10.783190
  35       11.010603
  36       11.148656
 
 -0.4166667E+00 -0.8333333E-01 -0.8333333E-01  0.1157407E-02
   1      -34.521915
   2      -33.887306
   3      -15.848182
   4      -15.632891
   5      -10.960666
   6      -10.893950
   7       -9.618111
   8       -9.583019
   9       -7.423345
  10       -7.168031
  11       -5.811335
  12       -5.606719
  13        3.386514
  14        3.412145
  15        3.449623
  16        3.471315
  17        4.201003
  18        4.242515
  19        4.480599
  20        4.519886
  21        5.166976
  22        5.225939
  23        5.683484
  24        5.756355
  25        9.161770
  26        9.382438
  27        9.624459
  28        9.748412
  29        9.948470
  30       10.095500
  31       10.291206
  32       10.356663
  33       10.727159
  34       10.783190
  35       11.010603
  36       11.148692
 
  0.8333333E-01  0.4166667E+00  0.8333333E-01  0.1157407E-02
   1      -34.521915
   2      -33.887305
   3      -15.847653
   4      -15.633486
   5      -10.960737
   6      -10.893670
   7       -9.618014
   8       -9.583135
   9       -7.425526
  10       -7.165843
  11       -5.811167
  12       -5.607012
  13        3.386391
  14        3.412387
  15        3.449377
  16        3.471402
  17        4.201012
  18        4.242531
  19        4.480672
  20        4.519817
  21        5.167078
  22        5.225816
  23        5.683403
  24        5.756421
  25        9.162442
  26        9.381642
  27        9.624016
  28        9.749187
  29        9.948721
  30       10.094990
  31       10.291551
  32       10.356372
  33       10.728196
  34       10.784436
  35       11.008619
  36       11.147161
 
 -0.8333333E-01 -0.4166667E+00 -0.8333333E-01  0.1157407E-02
   1      -34.521915
   2      -33.887305
   3      -15.847653
   4      -15.633486
   5      -10.960738
   6      -10.893670
   7       -9.618015
   8       -9.583133
   9       -7.425525
  10       -7.165843
  11       -5.811168
  12       -5.607011
  13        3.386391
  14        3.412387
  15        3.449378
  16        3.471401
  17        4.201013
  18        4.242530
  19        4.480670
  20        4.519819
  21        5.167078
  22        5.225816
  23        5.683403
  24        5.756421
  25        9.162442
  26        9.381642
  27        9.624016
  28        9.749187
  29        9.948721
  30       10.094990
  31       10.291551
  32       10.356372
  33       10.728196
  34       10.784436
  35       11.008619
  36       11.147171
 
  0.8333333E-01  0.8333333E-01  0.4166667E+00  0.1157407E-02
   1      -34.521913
   2      -33.887306
   3      -15.850709
   4      -15.630163
   5      -10.951274
   6      -10.905335
   7       -9.622423
   8       -9.576668
   9       -7.410887
  10       -7.181572
  11       -5.811207
  12       -5.606111