       N       E                     dE             d eps       ncg     rms          rms(c)
DAV:   1     0.287794716785E+03    0.28779E+03   -0.10504E+04 62208   0.142E+03
DAV:   2     0.214447127068E+02   -0.26635E+03   -0.24094E+03 66708   0.375E+02
DAV:   3    -0.326292888750E+02   -0.54074E+02   -0.51314E+02 80216   0.169E+02
DAV:   4    -0.370217353465E+02   -0.43924E+01   -0.42801E+01102536   0.447E+01
DAV:   5    -0.373236620755E+02   -0.30193E+00   -0.29890E+00 96680   0.114E+01    0.113E+01
DAV:   6    -0.351281361174E+02    0.21955E+01   -0.22595E+01 93724   0.337E+01    0.681E+00
DAV:   7    -0.345989648249E+02    0.52917E+00   -0.43033E+00 92060   0.266E+01    0.229E+00
DAV:   8    -0.345524747902E+02    0.46490E-01   -0.30873E-01 87848   0.489E+00    0.112E+00
DAV:   9    -0.345419001200E+02    0.10575E-01   -0.12513E-01 99084   0.244E+00    0.653E-01
DAV:  10    -0.345399909120E+02    0.19092E-02   -0.16808E-02 95328   0.139E+00    0.192E-01
DAV:  11    -0.345398064911E+02    0.18442E-03   -0.51740E-03 91836   0.504E-01    0.824E-02
DAV:  12    -0.345397678056E+02    0.38686E-04   -0.35108E-04 92380   0.209E-01    0.416E-02
DAV:  13    -0.345397615345E+02    0.62711E-05   -0.78379E-05 95072   0.628E-02
   1 F= -.34539762E+02 E0= -.34539762E+02  d E =0.000000E+00  mag=     0.0085     0.0049     1.2958
