 vasp.5.3.2 13Sep12 (build Sep  9 2014 11:37:56) complex                        
  
 executed on             LinuxIFC date 2014.11.05  16:56:13
 running on   16 total cores
 distrk:  each k-point on   16 cores,    1 groups
 distr:  one band on NCORES_PER_BAND=   8 cores,    2 groups


--------------------------------------------------------------------------------------------------------


 INCAR:
 POTCAR:   PAW U 17Apr2000                        
 POTCAR:   PAW O 31May2000                        
 POTCAR:   PAW U 17Apr2000                        
   VRHFIN =U:  [Xe,5d,4f]                                                       
   LEXCH  = CA                                                                  
   EATOM  =  1409.7225 eV,  103.6117 Ry                                         
                                                                                
   TITEL  = PAW U 17Apr2000                                                     
   LULTRA =        F    use ultrasoft PP ?                                      
   IUNSCR =        1    unscreen: 0-lin 1-nonlin 2-no                           
   RPACOR =    2.200    partial core radius                                     
   POMASS =  238.029; ZVAL   =   14.000    mass and valenz                      
   RCORE  =    2.800    outmost cutoff radius                                   
   RWIGS  =    3.000; RWIGS  =    1.588    wigner-seitz radius (au A)           
   ENMAX  =  252.603; ENMIN  =  189.452 eV                                      
   RCLOC  =    1.811    cutoff for local pot                                    
   LCOR   =        T    correct aug charges                                     
   LPAW   =        T    paw PP                                                  
   EAUG   =  526.410                                                            
   DEXC   =     .000                                                            
   RMAX   =    2.901    core radius for proj-oper                               
   RAUG   =    1.300    factor for augmentation sphere                          
   RDEP   =    2.950    core radius for depl-charge                             
   QCUT   =   -4.309; QGAM   =    8.618    optimization parameters              
                                                                                
   Description                                                                  
     l     E      TYP  RCUT    TYP  RCUT                                        
     0   .000     23  2.600                                                     
     0   .000     23  2.600                                                     
     1   .000     23  2.500                                                     
     1  2.000     23  2.500                                                     
     2   .000     23  2.500                                                     
     2   .000     23  2.500                                                     
     3   .000     23  2.800                                                     
     3   .000     23  2.800                                                     
  local pseudopotential read in
  partial core-charges read in
  atomic valenz-charges read in
  non local Contribution for L=           0  read in
    real space projection operators read in
  non local Contribution for L=           0  read in
    real space projection operators read in
  non local Contribution for L=           1  read in
    real space projection operators read in
  non local Contribution for L=           1  read in
    real space projection operators read in
  non local Contribution for L=           2  read in
    real space projection operators read in
  non local Contribution for L=           2  read in
    real space projection operators read in
  non local Contribution for L=           3  read in
    real space projection operators read in
  non local Contribution for L=           3  read in
    real space projection operators read in
    PAW grid and wavefunctions read in
 
   number of l-projection  operators is LMAX  =           8
   number of lm-projection operators is LMMAX =          32
 
 POTCAR:   PAW O 31May2000                        
   VRHFIN =O: s2p4                                                              
   LEXCH  = CA                                                                  
   EATOM  =   431.4447 eV,   31.7103 Ry                                         
                                                                                
   TITEL  = PAW O 31May2000                                                     
   LULTRA =        F    use ultrasoft PP ?                                      
   IUNSCR =        0    unscreen: 0-lin 1-nonlin 2-no                           
   RPACOR =     .000    partial core radius                                     
   POMASS =   16.000; ZVAL   =    6.000    mass and valenz                      
   RCORE  =    1.520    outmost cutoff radius                                   
   RWIGS  =    1.550; RWIGS  =     .820    wigner-seitz radius (au A)           
   ENMAX  =  400.000; ENMIN  =  300.000 eV                                      
   ICORE  =        2    local potential                                         
   LCOR   =        T    correct aug charges                                     
   LPAW   =        T    paw PP                                                  
   EAUG   =  605.392                                                            
   DEXC   =     .000                                                            
   RMAX   =    2.265    core radius for proj-oper                               
   RAUG   =    1.300    factor for augmentation sphere                          
   RDEP   =    1.550    radius for radial grids                                 
   QCUT   =   -5.518; QGAM   =   11.037    optimization parameters              
                                                                                
   Description                                                                  
     l     E      TYP  RCUT    TYP  RCUT                                        
     0   .000     23  1.200                                                     
     0  -.700     23  1.200                                                     
     1   .000     23  1.520                                                     
     1   .600     23  1.520                                                     
     2   .000      7  1.500                                                     
  local pseudopotential read in
  atomic valenz-charges read in
  non local Contribution for L=           0  read in
    real space projection operators read in
  non local Contribution for L=           0  read in
    real space projection operators read in
  non local Contribution for L=           1  read in
    real space projection operators read in
  non local Contribution for L=           1  read in
    real space projection operators read in
    PAW grid and wavefunctions read in
 
   number of l-projection  operators is LMAX  =           4
   number of lm-projection operators is LMMAX =           8
 
 PAW U 17Apr2000                        :
 energy of atom  1       EATOM=-1409.7225
 kinetic energy error for atom=    0.0035 (will be added to EATOM!!)
 PAW O 31May2000                        :
 energy of atom  2       EATOM= -431.4447
 kinetic energy error for atom=    0.0704 (will be added to EATOM!!)
 
 
 POSCAR: U1 O2                                   
  positions in direct lattice
  No initial velocities read in
 exchange correlation table for  LEXCH =        2
   RHO(1)=    0.500       N(1)  =     2000
   RHO(2)=  100.500       N(2)  =     4000
 


--------------------------------------------------------------------------------------------------------


 ion  position               nearest neighbor table
   1  0.000  0.000  0.000-   2 2.37   2 2.37   2 2.37   2 2.37   3 2.37   3 2.37   3 2.37   3 2.37

   2  0.750  0.750  0.750-   1 2.37   1 2.37   1 2.37   1 2.37
   3  0.250  0.250  0.250-   1 2.37   1 2.37   1 2.37   1 2.37
 

IMPORTANT INFORMATION: All symmetrisations will be switched off!
NOSYMM: (Re-)initialisation of all symmetry stuff for point group C_1.

 
 
 KPOINTS: Monkhost Pack                           

Automatic generation of k-mesh.
Space group operators:
 irot       det(A)        alpha          n_x          n_y          n_z        tau_x        tau_y        tau_z
    1     1.000000     0.000000     1.000000     0.000000     0.000000     0.000000     0.000000     0.000000
 
 Subroutine IBZKPT returns following result:
 ===========================================
 
 Found    864 irreducible k-points:
 
 Following reciprocal coordinates:
            Coordinates               Weight
  0.083333  0.083333  0.083333     12.000000
 -0.083333 -0.083333 -0.083333     12.000000
  0.083333  0.000000  0.000000     12.000000
 -0.083333  0.000000  0.000000     12.000000
  0.000000  0.000000 -0.083333     12.000000
  0.000000  0.000000  0.083333     12.000000
  0.000000  0.083333  0.000000     12.000000
  0.000000 -0.083333  0.000000     12.000000
  0.250000  0.083333  0.083333     12.000000
 -0.250000 -0.083333 -0.083333     12.000000
  0.083333  0.250000  0.083333     12.000000
 -0.083333 -0.250000 -0.083333     12.000000
  0.083333  0.083333  0.250000     12.000000
 -0.083333 -0.083333 -0.250000     12.000000
  0.083333  0.000000 -0.166667     12.000000
 -0.083333  0.000000  0.166667     12.000000
  0.250000  0.166667  0.166667     12.000000
 -0.250000 -0.166667 -0.166667     12.000000
  0.083333 -0.166667  0.000000     12.000000
 -0.083333  0.166667  0.000000     12.000000
  0.000000  0.166667 -0.083333     12.000000
  0.000000 -0.166667  0.083333     12.000000
  0.166667  0.000000 -0.083333     12.000000
 -0.166667  0.000000  0.083333     12.000000
 -0.166667 -0.166667 -0.250000     12.000000
  0.166667  0.166667  0.250000     12.000000
  0.166667  0.250000  0.166667     12.000000
 -0.166667 -0.250000 -0.166667     12.000000
  0.000000  0.083333 -0.166667     12.000000
  0.000000 -0.083333  0.166667     12.000000
 -0.166667  0.083333  0.000000     12.000000
  0.166667 -0.083333  0.000000     12.000000
  0.416667  0.083333  0.083333     12.000000
 -0.416667 -0.083333 -0.083333     12.000000
  0.083333  0.416667  0.083333     12.000000
 -0.083333 -0.416667 -0.083333     12.000000
  0.083333  0.083333  0.416667     12.000000
 -0.083333 -0.083333 -0.416667     12.000000
  0.083333  0.000000 -0.333333     12.000000
 -0.083333  0.000000  0.333333     12.000000
  0.416667  0.333333  0.333333     12.000000
 -0.416667 -0.333333 -0.333333     12.000000
  0.083333 -0.333333  0.000000     12.000000
 -0.083333  0.333333  0.000000     12.000000
  0.000000  0.333333 -0.083333     12.000000
  0.000000 -0.333333  0.083333     12.000000
  0.333333  0.000000 -0.083333     12.000000
 -0.333333  0.000000  0.083333     12.000000
 -0.333333 -0.333333 -0.416667     12.000000
  0.333333  0.333333  0.416667     12.000000
  0.333333  0.416667  0.333333     12.000000
 -0.333333 -0.416667 -0.333333     12.000000
  0.000000  0.083333 -0.333333     12.000000
  0.000000 -0.083333  0.333333     12.000000
 -0.333333  0.083333  0.000000     12.000000
  0.333333 -0.083333  0.000000     12.000000
 -0.416667  0.083333  0.083333     12.000000
  0.416667 -0.083333 -0.083333     12.000000
  0.083333 -0.416667  0.083333     12.000000
 -0.083333  0.416667 -0.083333     12.000000
  0.083333  0.083333 -0.416667     12.000000
 -0.083333 -0.083333  0.416667     12.000000
  0.083333  0.000000  0.500000     12.000000
 -0.083333  0.000000  0.500000     12.000000
 -0.416667  0.500000  0.500000     12.000000
  0.416667  0.500000  0.500000     12.000000
  0.083333  0.500000  0.000000     12.000000
 -0.083333  0.500000  0.000000     12.000000
  0.000000  0.500000 -0.083333     12.000000
  0.000000  0.500000  0.083333     12.000000
  0.500000  0.000000 -0.083333     12.000000
  0.500000  0.000000  0.083333     12.000000
  0.500000  0.500000  0.416667     12.000000
  0.500000  0.500000 -0.416667     12.000000
  0.500000 -0.416667  0.500000     12.000000
  0.500000  0.416667  0.500000     12.000000
  0.000000  0.083333  0.500000     12.000000
  0.000000 -0.083333  0.500000     12.000000
  0.500000  0.083333  0.000000     12.000000
  0.500000 -0.083333  0.000000     12.000000
 -0.250000  0.083333  0.083333     12.000000
  0.250000 -0.083333 -0.083333     12.000000
  0.083333 -0.250000  0.083333     12.000000
 -0.083333  0.250000 -0.083333     12.000000
  0.083333  0.083333 -0.250000     12.000000
 -0.083333 -0.083333  0.250000     12.000000
  0.083333  0.000000  0.333333     12.000000
 -0.083333  0.000000 -0.333333     12.000000
 -0.250000 -0.333333 -0.333333     12.000000
  0.250000  0.333333  0.333333     12.000000
  0.083333  0.333333  0.000000     12.000000
 -0.083333 -0.333333  0.000000     12.000000
  0.000000 -0.333333 -0.083333     12.000000
  0.000000  0.333333  0.083333     12.000000
 -0.333333  0.000000 -0.083333     12.000000
  0.333333  0.000000  0.083333     12.000000
  0.333333  0.333333  0.250000     12.000000
 -0.333333 -0.333333 -0.250000     12.000000
 -0.333333 -0.250000 -0.333333     12.000000
  0.333333  0.250000  0.333333     12.000000
  0.000000  0.083333  0.333333     12.000000
  0.000000 -0.083333 -0.333333     12.000000
  0.333333  0.083333  0.000000     12.000000
 -0.333333 -0.083333  0.000000     12.000000
 -0.083333  0.083333  0.083333     12.000000
  0.083333 -0.083333 -0.083333     12.000000
  0.083333 -0.083333  0.083333     12.000000
 -0.083333  0.083333 -0.083333     12.000000
  0.083333  0.083333 -0.083333     12.000000
 -0.083333 -0.083333  0.083333     12.000000
  0.083333  0.000000  0.166667     12.000000
 -0.083333  0.000000 -0.166667     12.000000
 -0.083333 -0.166667 -0.166667     12.000000
  0.083333  0.166667  0.166667     12.000000
  0.083333  0.166667  0.000000     12.000000
 -0.083333 -0.166667  0.000000     12.000000
  0.000000 -0.166667 -0.083333     12.000000
  0.000000  0.166667  0.083333     12.000000
 -0.166667  0.000000 -0.083333     12.000000
  0.166667  0.000000  0.083333     12.000000
  0.166667  0.166667  0.083333     12.000000
 -0.166667 -0.166667 -0.083333     12.000000
 -0.166667 -0.083333 -0.166667     12.000000
  0.166667  0.083333  0.166667     12.000000
  0.000000  0.083333  0.166667     12.000000
  0.000000 -0.083333 -0.166667     12.000000
  0.166667  0.083333  0.000000     12.000000
 -0.166667 -0.083333  0.000000     12.000000
  0.250000  0.250000  0.083333     12.000000
 -0.250000 -0.250000 -0.083333     12.000000
  0.083333  0.250000  0.250000     12.000000
 -0.083333 -0.250000 -0.250000     12.000000
  0.250000  0.083333  0.250000     12.000000
 -0.250000 -0.083333 -0.250000     12.000000
  0.250000  0.166667  0.000000     12.000000
 -0.250000 -0.166667  0.000000     12.000000
  0.250000  0.000000  0.166667     12.000000
 -0.250000  0.000000 -0.166667     12.000000
  0.083333 -0.166667 -0.166667     12.000000
 -0.083333  0.166667  0.166667     12.000000
  0.166667  0.166667 -0.083333     12.000000
 -0.166667 -0.166667  0.083333     12.000000
  0.000000 -0.166667 -0.250000     12.000000
  0.000000  0.166667  0.250000     12.000000
 -0.166667  0.000000 -0.250000     12.000000
  0.166667  0.000000  0.250000     12.000000
  0.166667  0.250000  0.000000     12.000000
 -0.166667 -0.250000  0.000000     12.000000
 -0.166667  0.083333 -0.166667     12.000000
  0.166667 -0.083333  0.166667     12.000000
  0.000000  0.250000  0.166667     12.000000
  0.000000 -0.250000 -0.166667     12.000000
  0.416667  0.250000  0.083333     12.000000
 -0.416667 -0.250000 -0.083333     12.000000
  0.083333  0.416667  0.250000     12.000000
 -0.083333 -0.416667 -0.250000     12.000000
  0.250000  0.083333  0.416667     12.000000
 -0.250000 -0.083333 -0.416667     12.000000
  0.250000  0.166667 -0.166667     12.000000
 -0.250000 -0.166667  0.166667     12.000000
  0.416667  0.166667  0.333333     12.000000
 -0.416667 -0.166667 -0.333333     12.000000
  0.083333 -0.333333 -0.166667     12.000000
 -0.083333  0.333333  0.166667     12.000000
  0.166667  0.333333 -0.083333     12.000000
 -0.166667 -0.333333  0.083333     12.000000
  0.166667 -0.166667 -0.250000     12.000000
 -0.166667  0.166667  0.250000     12.000000
 -0.333333 -0.166667 -0.416667     12.000000
  0.333333  0.166667  0.416667     12.000000
  0.333333  0.416667  0.166667     12.000000
 -0.333333 -0.416667 -0.166667     12.000000
 -0.166667  0.083333 -0.333333     12.000000
  0.166667 -0.083333  0.333333     12.000000
 -0.166667  0.250000  0.166667     12.000000
  0.166667 -0.250000 -0.166667     12.000000
 -0.083333  0.166667  0.333333     12.000000
  0.083333 -0.166667 -0.333333     12.000000
 -0.250000  0.166667 -0.166667     12.000000
  0.250000 -0.166667  0.166667     12.000000
 -0.416667 -0.333333 -0.166667     12.000000
  0.416667  0.333333  0.166667     12.000000
  0.166667  0.333333  0.416667     12.000000
 -0.166667 -0.333333 -0.416667     12.000000
 -0.333333 -0.166667  0.083333     12.000000
  0.333333  0.166667 -0.083333     12.000000
  0.166667 -0.166667  0.250000     12.000000
 -0.166667  0.166667 -0.250000     12.000000
  0.333333 -0.083333  0.166667     12.000000
 -0.333333  0.083333 -0.166667     12.000000
 -0.166667 -0.250000  0.166667     12.000000
  0.166667  0.250000 -0.166667     12.000000
 -0.166667 -0.416667 -0.333333     12.000000
  0.166667  0.416667  0.333333     12.000000
 -0.416667 -0.083333 -0.250000     12.000000
  0.416667  0.083333  0.250000     12.000000
 -0.250000 -0.416667 -0.083333     12.000000
  0.250000  0.416667  0.083333     12.000000
 -0.083333 -0.250000 -0.416667     12.000000
  0.083333  0.250000  0.416667     12.000000
 -0.416667  0.250000  0.083333     12.000000
  0.416667 -0.250000 -0.083333     12.000000
  0.083333 -0.416667  0.250000     12.000000
 -0.083333  0.416667 -0.250000     12.000000
  0.250000  0.083333 -0.416667     12.000000
 -0.250000 -0.083333  0.416667     12.000000
  0.250000  0.166667 -0.333333     12.000000
 -0.250000 -0.166667  0.333333     12.000000
 -0.416667  0.333333  0.500000     12.000000
  0.416667 -0.333333  0.500000     12.000000
  0.083333  0.500000 -0.166667     12.000000
 -0.083333  0.500000  0.166667     12.000000
  0.166667  0.500000 -0.083333     12.000000
 -0.166667  0.500000  0.083333     12.000000
  0.333333 -0.166667 -0.250000     12.000000
 -0.333333  0.166667  0.250000     12.000000
  0.500000 -0.333333  0.416667     12.000000
  0.500000  0.333333 -0.416667     12.000000
  0.500000 -0.416667  0.333333     12.000000
  0.500000  0.416667 -0.333333     12.000000
 -0.166667  0.083333  0.500000     12.000000
  0.166667 -0.083333  0.500000     12.000000
 -0.333333  0.250000  0.166667     12.000000
  0.333333 -0.250000 -0.166667     12.000000
 -0.083333  0.166667  0.500000     12.000000
  0.083333 -0.166667  0.500000     12.000000
 -0.250000  0.333333 -0.166667     12.000000
  0.250000 -0.333333  0.166667     12.000000
  0.416667  0.500000 -0.333333     12.000000
 -0.416667  0.500000  0.333333     12.000000
  0.333333  0.500000 -0.416667     12.000000
 -0.333333  0.500000  0.416667     12.000000
  0.500000 -0.166667  0.083333     12.000000
  0.500000  0.166667 -0.083333     12.000000
  0.166667 -0.333333  0.250000     12.000000
 -0.166667  0.333333 -0.250000     12.000000
  0.500000 -0.083333  0.166667     12.000000
  0.500000  0.083333 -0.166667     12.000000
 -0.166667 -0.250000  0.333333     12.000000
  0.166667  0.250000 -0.333333     12.000000
 -0.333333  0.416667  0.500000     12.000000
  0.333333 -0.416667  0.500000     12.000000
  0.416667 -0.083333 -0.250000     12.000000
 -0.416667  0.083333  0.250000     12.000000
 -0.250000  0.416667 -0.083333     12.000000
  0.250000 -0.416667  0.083333     12.000000
 -0.083333 -0.250000  0.416667     12.000000
  0.083333  0.250000 -0.416667     12.000000
 -0.250000  0.250000  0.083333     12.000000
  0.250000 -0.250000 -0.083333     12.000000
  0.083333 -0.250000  0.250000     12.000000
 -0.083333  0.250000 -0.250000     12.000000
  0.250000  0.083333 -0.250000     12.000000
 -0.250000 -0.083333  0.250000     12.000000
  0.250000  0.166667  0.500000     12.000000
 -0.250000 -0.166667  0.500000     12.000000
 -0.250000  0.500000 -0.333333     12.000000
  0.250000  0.500000  0.333333     12.000000
  0.083333  0.333333 -0.166667     12.000000
 -0.083333 -0.333333  0.166667     12.000000
  0.166667 -0.333333 -0.083333     12.000000
 -0.166667  0.333333  0.083333     12.000000
  0.500000 -0.166667 -0.250000     12.000000
  0.500000  0.166667  0.250000     12.000000
  0.333333  0.500000  0.250000     12.000000
 -0.333333  0.500000 -0.250000     12.000000
 -0.333333 -0.250000  0.500000     12.000000
  0.333333  0.250000  0.500000     12.000000
 -0.166667  0.083333  0.333333     12.000000
  0.166667 -0.083333 -0.333333     12.000000
  0.500000  0.250000  0.166667     12.000000
  0.500000 -0.250000 -0.166667     12.000000
 -0.083333  0.166667 -0.333333     12.000000
  0.083333 -0.166667  0.333333     12.000000
 -0.250000  0.500000 -0.166667     12.000000
  0.250000  0.500000  0.166667     12.000000
  0.250000  0.333333  0.500000     12.000000
 -0.250000 -0.333333  0.500000     12.000000
  0.500000 -0.333333 -0.250000     12.000000
  0.500000  0.333333  0.250000     12.000000
  0.333333 -0.166667  0.083333     12.000000
 -0.333333  0.166667 -0.083333     12.000000
  0.166667  0.500000  0.250000     12.000000
 -0.166667  0.500000 -0.250000     12.000000
 -0.333333 -0.083333  0.166667     12.000000
  0.333333  0.083333 -0.166667     12.000000
 -0.166667 -0.250000  0.500000     12.000000
  0.166667  0.250000  0.500000     12.000000
  0.500000  0.250000  0.333333     12.000000
  0.500000 -0.250000 -0.333333     12.000000
  0.250000 -0.083333 -0.250000     12.000000
 -0.250000  0.083333  0.250000     12.000000
 -0.250000  0.250000 -0.083333     12.000000
  0.250000 -0.250000  0.083333     12.000000
 -0.083333 -0.250000  0.250000     12.000000
  0.083333  0.250000 -0.250000     12.000000
 -0.083333  0.250000  0.083333     12.000000
  0.083333 -0.250000 -0.083333     12.000000
  0.083333 -0.083333  0.250000     12.000000
 -0.083333  0.083333 -0.250000     12.000000
  0.250000  0.083333 -0.083333     12.000000
 -0.250000 -0.083333  0.083333     12.000000
  0.250000  0.166667  0.333333     12.000000
 -0.250000 -0.166667 -0.333333     12.000000
 -0.083333 -0.333333 -0.166667     12.000000
  0.083333  0.333333  0.166667     12.000000
  0.083333  0.166667 -0.166667     12.000000
 -0.083333 -0.166667  0.166667     12.000000
  0.166667 -0.166667 -0.083333     12.000000
 -0.166667  0.166667  0.083333     12.000000
 -0.333333 -0.166667 -0.250000     12.000000
  0.333333  0.166667  0.250000     12.000000
  0.166667  0.333333  0.083333     12.000000
 -0.166667 -0.333333 -0.083333     12.000000
 -0.166667 -0.083333 -0.333333     12.000000
  0.166667  0.083333  0.333333     12.000000
 -0.166667  0.083333  0.166667     12.000000
  0.166667 -0.083333 -0.166667     12.000000
  0.333333  0.250000  0.166667     12.000000
 -0.333333 -0.250000 -0.166667     12.000000
 -0.083333  0.166667 -0.166667     12.000000
  0.083333 -0.166667  0.166667     12.000000
 -0.250000 -0.333333 -0.166667     12.000000
  0.250000  0.333333  0.166667     12.000000
  0.083333  0.166667  0.333333     12.000000
 -0.083333 -0.166667 -0.333333     12.000000
 -0.333333 -0.166667 -0.083333     12.000000
  0.333333  0.166667  0.083333     12.000000
  0.166667 -0.166667  0.083333     12.000000
 -0.166667  0.166667 -0.083333     12.000000
  0.166667  0.333333  0.250000     12.000000
 -0.166667 -0.333333 -0.250000     12.000000
 -0.166667 -0.083333  0.166667     12.000000
  0.166667  0.083333 -0.166667     12.000000
 -0.166667 -0.250000 -0.333333     12.000000
  0.166667  0.250000  0.333333     12.000000
  0.333333  0.083333  0.166667     12.000000
 -0.333333 -0.083333 -0.166667     12.000000
  0.083333 -0.083333 -0.250000     12.000000
 -0.083333  0.083333  0.250000     12.000000
 -0.250000  0.083333 -0.083333     12.000000
  0.250000 -0.083333  0.083333     12.000000
 -0.083333 -0.250000  0.083333     12.000000
  0.083333  0.250000 -0.083333     12.000000
  0.416667  0.416667  0.083333     12.000000
 -0.416667 -0.416667 -0.083333     12.000000
  0.083333  0.416667  0.416667     12.000000
 -0.083333 -0.416667 -0.416667     12.000000
  0.416667  0.083333  0.416667     12.000000
 -0.416667 -0.083333 -0.416667     12.000000
  0.416667  0.333333  0.000000     12.000000
 -0.416667 -0.333333  0.000000     12.000000
  0.416667  0.000000  0.333333     12.000000
 -0.416667  0.000000 -0.333333     12.000000
  0.083333 -0.333333 -0.333333     12.000000
 -0.083333  0.333333  0.333333     12.000000
  0.333333  0.333333 -0.083333     12.000000
 -0.333333 -0.333333  0.083333     12.000000
  0.000000 -0.333333 -0.416667     12.000000
  0.000000  0.333333  0.416667     12.000000
 -0.333333  0.000000 -0.416667     12.000000
  0.333333  0.000000  0.416667     12.000000
  0.333333  0.416667  0.000000     12.000000
 -0.333333 -0.416667  0.000000     12.000000
 -0.333333  0.083333 -0.333333     12.000000
  0.333333 -0.083333  0.333333     12.000000
  0.000000  0.416667  0.333333     12.000000
  0.000000 -0.416667 -0.333333     12.000000
 -0.416667  0.416667  0.083333     12.000000
  0.416667 -0.416667 -0.083333     12.000000
  0.083333 -0.416667  0.416667     12.000000
 -0.083333  0.416667 -0.416667     12.000000
  0.416667  0.083333 -0.416667     12.000000
 -0.416667 -0.083333  0.416667     12.000000
  0.416667  0.333333 -0.166667     12.000000
 -0.416667 -0.333333  0.166667     12.000000
 -0.416667  0.166667  0.500000     12.000000
  0.416667 -0.166667  0.500000     12.000000
  0.083333  0.500000 -0.333333     12.000000
 -0.083333  0.500000  0.333333     12.000000
  0.333333  0.500000 -0.083333     12.000000
 -0.333333  0.500000  0.083333     12.000000
  0.166667 -0.333333 -0.416667     12.000000
 -0.166667  0.333333  0.416667     12.000000
  0.500000 -0.166667  0.416667     12.000000
  0.500000  0.166667 -0.416667     12.000000
  0.500000 -0.416667  0.166667     12.000000
  0.500000  0.416667 -0.166667     12.000000
 -0.333333  0.083333  0.500000     12.000000
  0.333333 -0.083333  0.500000     12.000000
 -0.166667  0.416667  0.333333     12.000000
  0.166667 -0.416667 -0.333333     12.000000
 -0.083333  0.333333  0.500000     12.000000
  0.083333 -0.333333  0.500000     12.000000
 -0.416667  0.166667 -0.333333     12.000000
  0.416667 -0.166667  0.333333     12.000000
  0.416667  0.500000 -0.166667     12.000000
 -0.416667  0.500000  0.166667     12.000000
  0.166667  0.500000 -0.416667     12.000000
 -0.166667  0.500000  0.416667     12.000000
  0.500000 -0.333333  0.083333     12.000000
  0.500000  0.333333 -0.083333     12.000000
  0.333333 -0.166667  0.416667     12.000000
 -0.333333  0.166667 -0.416667     12.000000
  0.500000 -0.083333  0.333333     12.000000
  0.500000  0.083333 -0.333333     12.000000
 -0.333333 -0.416667  0.166667     12.000000
  0.333333  0.416667 -0.166667     12.000000
 -0.166667  0.416667  0.500000     12.000000
  0.166667 -0.416667  0.500000     12.000000
  0.416667 -0.083333 -0.416667     12.000000
 -0.416667  0.083333  0.416667     12.000000
 -0.416667  0.416667 -0.083333     12.000000
  0.416667 -0.416667  0.083333     12.000000
 -0.083333 -0.416667  0.416667     12.000000
  0.083333  0.416667 -0.416667     12.000000
 -0.250000  0.416667  0.083333     12.000000
  0.250000 -0.416667 -0.083333     12.000000
  0.083333 -0.250000  0.416667     12.000000
 -0.083333  0.250000 -0.416667     12.000000
  0.416667  0.083333 -0.250000     12.000000
 -0.416667 -0.083333  0.250000     12.000000
  0.416667  0.333333 -0.333333     12.000000
 -0.416667 -0.333333  0.333333     12.000000
 -0.250000  0.333333 -0.333333     12.000000
  0.250000 -0.333333  0.333333     12.000000
  0.083333  0.333333 -0.333333     12.000000
 -0.083333 -0.333333  0.333333     12.000000
  0.333333 -0.333333 -0.083333     12.000000
 -0.333333  0.333333  0.083333     12.000000
  0.333333 -0.333333 -0.416667     12.000000
 -0.333333  0.333333  0.416667     12.000000
  0.333333 -0.333333  0.250000     12.000000
 -0.333333  0.333333 -0.250000     12.000000
 -0.333333 -0.250000  0.333333     12.000000
  0.333333  0.250000 -0.333333     12.000000
 -0.333333  0.083333  0.333333     12.000000
  0.333333 -0.083333 -0.333333     12.000000
 -0.333333  0.416667  0.333333     12.000000
  0.333333 -0.416667 -0.333333     12.000000
 -0.083333  0.333333 -0.333333     12.000000
  0.083333 -0.333333  0.333333     12.000000
 -0.416667  0.333333 -0.333333     12.000000
  0.416667 -0.333333  0.333333     12.000000
  0.250000  0.333333 -0.333333     12.000000
 -0.250000 -0.333333  0.333333     12.000000
  0.333333 -0.333333 -0.250000     12.000000
 -0.333333  0.333333  0.250000     12.000000
  0.333333 -0.333333  0.083333     12.000000
 -0.333333  0.333333 -0.083333     12.000000
  0.333333 -0.333333  0.416667     12.000000
 -0.333333  0.333333 -0.416667     12.000000
 -0.333333 -0.083333  0.333333     12.000000
  0.333333  0.083333 -0.333333     12.000000
 -0.333333 -0.416667  0.333333     12.000000
  0.333333  0.416667 -0.333333     12.000000
 -0.333333  0.250000  0.333333     12.000000
  0.333333 -0.250000 -0.333333     12.000000
  0.250000 -0.083333 -0.416667     12.000000
 -0.250000  0.083333  0.416667     12.000000
 -0.416667  0.250000 -0.083333     12.000000
  0.416667 -0.250000  0.083333     12.000000
 -0.083333 -0.416667  0.250000     12.000000
  0.083333  0.416667 -0.250000     12.000000
 -0.083333  0.416667  0.083333     12.000000
  0.083333 -0.416667 -0.083333     12.000000
  0.083333 -0.083333  0.416667     12.000000
 -0.083333  0.083333 -0.416667     12.000000
  0.416667  0.083333 -0.083333     12.000000
 -0.416667 -0.083333  0.083333     12.000000
  0.416667  0.333333  0.500000     12.000000
 -0.416667 -0.333333  0.500000     12.000000
 -0.083333  0.500000 -0.166667     12.000000
  0.083333  0.500000  0.166667     12.000000
  0.083333  0.166667 -0.333333     12.000000
 -0.083333 -0.166667  0.333333     12.000000
  0.333333 -0.166667 -0.083333     12.000000
 -0.333333  0.166667  0.083333     12.000000
  0.500000 -0.333333 -0.416667     12.000000
  0.500000  0.333333  0.416667     12.000000
  0.166667  0.500000  0.083333     12.000000
 -0.166667  0.500000 -0.083333     12.000000
 -0.166667 -0.083333  0.500000     12.000000
  0.166667  0.083333  0.500000     12.000000
 -0.333333  0.083333  0.166667     12.000000
  0.333333 -0.083333 -0.166667     12.000000
  0.500000  0.416667  0.333333     12.000000
  0.500000 -0.416667 -0.333333     12.000000
 -0.083333  0.333333 -0.166667     12.000000
  0.083333 -0.333333  0.166667     12.000000
 -0.416667  0.500000 -0.333333     12.000000
  0.416667  0.500000  0.333333     12.000000
  0.083333  0.166667  0.500000     12.000000
 -0.083333 -0.166667  0.500000     12.000000
  0.500000 -0.166667 -0.083333     12.000000
  0.500000  0.166667  0.083333     12.000000
  0.166667 -0.333333  0.083333     12.000000
 -0.166667  0.333333 -0.083333     12.000000
  0.333333  0.500000  0.416667     12.000000
 -0.333333  0.500000 -0.416667     12.000000
 -0.166667 -0.083333  0.333333     12.000000
  0.166667  0.083333 -0.333333     12.000000
 -0.333333 -0.416667  0.500000     12.000000
  0.333333  0.416667  0.500000     12.000000
  0.500000  0.083333  0.166667     12.000000
  0.500000 -0.083333 -0.166667     12.000000
  0.083333 -0.083333 -0.416667     12.000000
 -0.083333  0.083333  0.416667     12.000000
 -0.416667  0.083333 -0.083333     12.000000
  0.416667 -0.083333  0.083333     12.000000
 -0.083333 -0.416667  0.083333     12.000000
  0.083333  0.416667 -0.083333     12.000000
 -0.416667 -0.416667  0.083333     12.000000
  0.416667  0.416667 -0.083333     12.000000
  0.083333 -0.416667 -0.416667     12.000000
 -0.083333  0.416667  0.416667     12.000000
 -0.416667  0.083333 -0.416667     12.000000
  0.416667 -0.083333  0.416667     12.000000
 -0.416667  0.500000  0.000000     12.000000
  0.416667  0.500000  0.000000     12.000000
 -0.416667  0.000000  0.500000     12.000000
  0.416667  0.000000  0.500000     12.000000
  0.083333  0.500000  0.500000     12.000000
 -0.083333  0.500000  0.500000     12.000000
  0.500000  0.500000 -0.083333     12.000000
  0.500000  0.500000  0.083333     12.000000
  0.000000  0.500000  0.416667     12.000000
  0.000000  0.500000 -0.416667     12.000000
  0.500000  0.000000  0.416667     12.000000
  0.500000  0.000000 -0.416667     12.000000
  0.500000 -0.416667  0.000000     12.000000
  0.500000  0.416667  0.000000     12.000000
  0.500000  0.083333  0.500000     12.000000
  0.500000 -0.083333  0.500000     12.000000
  0.000000 -0.416667  0.500000     12.000000
  0.000000  0.416667  0.500000     12.000000
 -0.250000 -0.416667  0.083333     12.000000
  0.250000  0.416667 -0.083333     12.000000
  0.083333 -0.250000 -0.416667     12.000000
 -0.083333  0.250000  0.416667     12.000000
 -0.416667  0.083333 -0.250000     12.000000
  0.416667 -0.083333  0.250000     12.000000
 -0.416667  0.500000 -0.166667     12.000000
  0.416667  0.500000  0.166667     12.000000
 -0.250000  0.166667 -0.333333     12.000000
  0.250000 -0.166667  0.333333     12.000000
  0.083333  0.333333  0.500000     12.000000
 -0.083333 -0.333333  0.500000     12.000000
  0.500000 -0.333333 -0.083333     12.000000
  0.500000  0.333333  0.083333     12.000000
  0.166667  0.500000  0.416667     12.000000
 -0.166667  0.500000 -0.416667     12.000000
  0.333333 -0.166667  0.250000     12.000000
 -0.333333  0.166667 -0.250000     12.000000
 -0.333333 -0.250000  0.166667     12.000000
  0.333333  0.250000 -0.166667     12.000000
  0.500000  0.083333  0.333333     12.000000
  0.500000 -0.083333 -0.333333     12.000000
 -0.166667 -0.416667  0.500000     12.000000
  0.166667  0.416667  0.500000     12.000000
 -0.083333  0.500000 -0.333333     12.000000
  0.083333  0.500000  0.333333     12.000000
  0.416667  0.166667  0.500000     12.000000
 -0.416667 -0.166667  0.500000     12.000000
  0.250000  0.333333 -0.166667     12.000000
 -0.250000 -0.333333  0.166667     12.000000
  0.166667 -0.333333 -0.250000     12.000000
 -0.166667  0.333333  0.250000     12.000000
  0.333333  0.500000  0.083333     12.000000
 -0.333333  0.500000 -0.083333     12.000000
  0.500000 -0.166667 -0.416667     12.000000
  0.500000  0.166667  0.416667     12.000000
 -0.333333 -0.083333  0.500000     12.000000
  0.333333  0.083333  0.500000     12.000000
  0.500000  0.416667  0.166667     12.000000
  0.500000 -0.416667 -0.166667     12.000000
 -0.166667  0.250000  0.333333     12.000000
  0.166667 -0.250000 -0.333333     12.000000
  0.250000 -0.083333  0.416667     12.000000
 -0.250000  0.083333 -0.416667     12.000000
  0.416667  0.250000 -0.083333     12.000000
 -0.416667 -0.250000  0.083333     12.000000
 -0.083333  0.416667  0.250000     12.000000
  0.083333 -0.416667 -0.250000     12.000000
 -0.250000 -0.250000  0.083333     12.000000
  0.250000  0.250000 -0.083333     12.000000
  0.083333 -0.250000 -0.250000     12.000000
 -0.083333  0.250000  0.250000     12.000000
 -0.250000  0.083333 -0.250000     12.000000
  0.250000 -0.083333  0.250000     12.000000
 -0.250000 -0.333333  0.000000     12.000000
  0.250000  0.333333  0.000000     12.000000
 -0.250000  0.000000 -0.333333     12.000000
  0.250000  0.000000  0.333333     12.000000
  0.083333  0.333333  0.333333     12.000000
 -0.083333 -0.333333 -0.333333     12.000000
 -0.333333 -0.333333 -0.083333     12.000000
  0.333333  0.333333  0.083333     12.000000
  0.000000  0.333333  0.250000     12.000000
  0.000000 -0.333333 -0.250000     12.000000
  0.333333  0.000000  0.250000     12.000000
 -0.333333  0.000000 -0.250000     12.000000
 -0.333333 -0.250000  0.000000     12.000000
  0.333333  0.250000  0.000000     12.000000
  0.333333  0.083333  0.333333     12.000000
 -0.333333 -0.083333 -0.333333     12.000000
  0.000000 -0.250000 -0.333333     12.000000
  0.000000  0.250000  0.333333     12.000000
  0.250000  0.250000  0.250000     12.000000
 -0.250000 -0.250000 -0.250000     12.000000
  0.250000  0.000000  0.000000     12.000000
 -0.250000  0.000000  0.000000     12.000000
  0.000000  0.000000 -0.250000     12.000000
  0.000000  0.000000  0.250000     12.000000
  0.000000  0.250000  0.000000     12.000000
  0.000000 -0.250000  0.000000     12.000000
  0.416667  0.250000  0.250000     12.000000
 -0.416667 -0.250000 -0.250000     12.000000
  0.250000  0.416667  0.250000     12.000000
 -0.250000 -0.416667 -0.250000     12.000000
  0.250000  0.250000  0.416667     12.000000
 -0.250000 -0.250000 -0.416667     12.000000
  0.250000  0.000000 -0.166667     12.000000
 -0.250000  0.000000  0.166667     12.000000
  0.416667  0.166667  0.166667     12.000000
 -0.416667 -0.166667 -0.166667     12.000000
  0.250000 -0.166667  0.000000     12.000000
 -0.250000  0.166667  0.000000     12.000000
  0.000000  0.166667 -0.250000     12.000000
  0.000000 -0.166667  0.250000     12.000000
  0.166667  0.000000 -0.250000     12.000000
 -0.166667  0.000000  0.250000     12.000000
 -0.166667 -0.166667 -0.416667     12.000000
  0.166667  0.166667  0.416667     12.000000
  0.166667  0.416667  0.166667     12.000000
 -0.166667 -0.416667 -0.166667     12.000000
  0.000000  0.250000 -0.166667     12.000000
  0.000000 -0.250000  0.166667     12.000000
 -0.166667  0.250000  0.000000     12.000000
  0.166667 -0.250000  0.000000     12.000000
 -0.416667  0.250000  0.250000     12.000000
  0.416667 -0.250000 -0.250000     12.000000
  0.250000 -0.416667  0.250000     12.000000
 -0.250000  0.416667 -0.250000     12.000000
  0.250000  0.250000 -0.416667     12.000000
 -0.250000 -0.250000  0.416667     12.000000
  0.250000  0.000000 -0.333333     12.000000
 -0.250000  0.000000  0.333333     12.000000
 -0.416667  0.333333  0.333333     12.000000
  0.416667 -0.333333 -0.333333     12.000000
  0.250000 -0.333333  0.000000     12.000000
 -0.250000  0.333333  0.000000     12.000000
  0.000000  0.333333 -0.250000     12.000000
  0.000000 -0.333333  0.250000     12.000000
  0.333333  0.000000 -0.250000     12.000000
 -0.333333  0.000000  0.250000     12.000000
 -0.333333 -0.333333  0.416667     12.000000
  0.333333  0.333333 -0.416667     12.000000
  0.333333 -0.416667  0.333333     12.000000
 -0.333333  0.416667 -0.333333     12.000000
  0.000000  0.250000 -0.333333     12.000000
  0.000000 -0.250000  0.333333     12.000000
 -0.333333  0.250000  0.000000     12.000000
  0.333333 -0.250000  0.000000     12.000000
 -0.250000  0.250000  0.250000     12.000000
  0.250000 -0.250000 -0.250000     12.000000
  0.250000 -0.250000  0.250000     12.000000
 -0.250000  0.250000 -0.250000     12.000000
  0.250000  0.250000 -0.250000     12.000000
 -0.250000 -0.250000  0.250000     12.000000
  0.250000  0.000000  0.500000     12.000000
 -0.250000  0.000000  0.500000     12.000000
 -0.250000  0.500000  0.500000     12.000000
  0.250000  0.500000  0.500000     12.000000
  0.250000  0.500000  0.000000     12.000000
 -0.250000  0.500000  0.000000     12.000000
  0.000000  0.500000 -0.250000     12.000000
  0.000000  0.500000  0.250000     12.000000
  0.500000  0.000000 -0.250000     12.000000
  0.500000  0.000000  0.250000     12.000000
  0.500000  0.500000  0.250000     12.000000
  0.500000  0.500000 -0.250000     12.000000
  0.500000 -0.250000  0.500000     12.000000
  0.500000  0.250000  0.500000     12.000000
  0.000000  0.250000  0.500000     12.000000
  0.000000 -0.250000  0.500000     12.000000
  0.500000  0.250000  0.000000     12.000000
  0.500000 -0.250000  0.000000     12.000000
  0.416667  0.416667  0.250000     12.000000
 -0.416667 -0.416667 -0.250000     12.000000
  0.250000  0.416667  0.416667     12.000000
 -0.250000 -0.416667 -0.416667     12.000000
  0.416667  0.250000  0.416667     12.000000
 -0.416667 -0.250000 -0.416667     12.000000
  0.416667  0.166667  0.000000     12.000000
 -0.416667 -0.166667  0.000000     12.000000
  0.416667  0.000000  0.166667     12.000000
 -0.416667  0.000000 -0.166667     12.000000
  0.250000 -0.166667 -0.166667     12.000000
 -0.250000  0.166667  0.166667     12.000000
  0.166667  0.166667 -0.250000     12.000000
 -0.166667 -0.166667  0.250000     12.000000
  0.000000 -0.166667 -0.416667     12.000000
  0.000000  0.166667  0.416667     12.000000
 -0.166667  0.000000 -0.416667     12.000000
  0.166667  0.000000  0.416667     12.000000
  0.166667  0.416667  0.000000     12.000000
 -0.166667 -0.416667  0.000000     12.000000
 -0.166667  0.250000 -0.166667     12.000000
  0.166667 -0.250000  0.166667     12.000000
  0.000000  0.416667  0.166667     12.000000
  0.000000 -0.416667 -0.166667     12.000000
 -0.416667  0.416667  0.250000     12.000000
  0.416667 -0.416667 -0.250000     12.000000
  0.250000 -0.416667  0.416667     12.000000
 -0.250000  0.416667 -0.416667     12.000000
  0.416667  0.250000 -0.416667     12.000000
 -0.416667 -0.250000  0.416667     12.000000
  0.416667  0.166667 -0.166667     12.000000
 -0.416667 -0.166667  0.166667     12.000000
 -0.416667  0.166667  0.333333     12.000000
  0.416667 -0.166667 -0.333333     12.000000
  0.250000 -0.333333 -0.166667     12.000000
 -0.250000  0.333333  0.166667     12.000000
  0.166667  0.333333 -0.250000     12.000000
 -0.166667 -0.333333  0.250000     12.000000
  0.166667 -0.166667 -0.416667     12.000000
 -0.166667  0.166667  0.416667     12.000000
 -0.333333 -0.166667  0.416667     12.000000
  0.333333  0.166667 -0.416667     12.000000
  0.333333 -0.416667  0.166667     12.000000
 -0.333333  0.416667 -0.166667     12.000000
 -0.166667  0.250000 -0.333333     12.000000
  0.166667 -0.250000  0.333333     12.000000
 -0.166667  0.416667  0.166667     12.000000
  0.166667 -0.416667 -0.166667     12.000000
 -0.250000  0.166667  0.333333     12.000000
  0.250000 -0.166667 -0.333333     12.000000
 -0.416667  0.166667 -0.166667     12.000000
  0.416667 -0.166667  0.166667     12.000000
  0.416667 -0.333333 -0.166667     12.000000
 -0.416667  0.333333  0.166667     12.000000
  0.166667  0.333333 -0.416667     12.000000
 -0.166667 -0.333333  0.416667     12.000000
 -0.333333 -0.166667  0.250000     12.000000
  0.333333  0.166667 -0.250000     12.000000
  0.166667 -0.166667  0.416667     12.000000
 -0.166667  0.166667 -0.416667     12.000000
  0.333333 -0.250000  0.166667     12.000000
 -0.333333  0.250000 -0.166667     12.000000
 -0.166667 -0.416667  0.166667     12.000000
  0.166667  0.416667 -0.166667     12.000000
 -0.166667  0.416667 -0.333333     12.000000
  0.166667 -0.416667  0.333333     12.000000
  0.416667 -0.250000 -0.416667     12.000000
 -0.416667  0.250000  0.416667     12.000000
 -0.416667  0.416667 -0.250000     12.000000
  0.416667 -0.416667  0.250000     12.000000
 -0.250000 -0.416667  0.416667     12.000000
  0.250000  0.416667 -0.416667     12.000000
 -0.250000  0.416667  0.250000     12.000000
  0.250000 -0.416667 -0.250000     12.000000
  0.250000 -0.250000  0.416667     12.000000
 -0.250000  0.250000 -0.416667     12.000000
  0.416667  0.250000 -0.250000     12.000000
 -0.416667 -0.250000  0.250000     12.000000
  0.416667  0.166667 -0.333333     12.000000
 -0.416667 -0.166667  0.333333     12.000000
 -0.250000  0.333333  0.500000     12.000000
  0.250000 -0.333333  0.500000     12.000000
  0.250000  0.500000 -0.166667     12.000000
 -0.250000  0.500000  0.166667     12.000000
  0.166667  0.500000 -0.250000     12.000000
 -0.166667  0.500000  0.250000     12.000000
  0.333333 -0.166667 -0.416667     12.000000
 -0.333333  0.166667  0.416667     12.000000
  0.500000 -0.333333  0.250000     12.000000
  0.500000  0.333333 -0.250000     12.000000
  0.500000 -0.250000  0.333333     12.000000
  0.500000  0.250000 -0.333333     12.000000
 -0.166667  0.250000  0.500000     12.000000
  0.166667 -0.250000  0.500000     12.000000
 -0.333333  0.416667  0.166667     12.000000
  0.333333 -0.416667 -0.166667     12.000000
 -0.250000  0.166667  0.500000     12.000000
  0.250000 -0.166667  0.500000     12.000000
 -0.416667  0.333333 -0.166667     12.000000
  0.416667 -0.333333  0.166667     12.000000
  0.250000  0.500000 -0.333333     12.000000
 -0.250000  0.500000  0.333333     12.000000
  0.333333  0.500000 -0.250000     12.000000
 -0.333333  0.500000  0.250000     12.000000
  0.500000 -0.166667  0.250000     12.000000
  0.500000  0.166667 -0.250000     12.000000
  0.166667 -0.333333  0.416667     12.000000
 -0.166667  0.333333 -0.416667     12.000000
  0.500000 -0.250000  0.166667     12.000000
  0.500000  0.250000 -0.166667     12.000000
 -0.166667 -0.416667  0.333333     12.000000
  0.166667  0.416667 -0.333333     12.000000
 -0.333333  0.250000  0.500000     12.000000
  0.333333 -0.250000  0.500000     12.000000
  0.250000 -0.250000 -0.416667     12.000000
 -0.250000  0.250000  0.416667     12.000000
 -0.416667  0.250000 -0.250000     12.000000
  0.416667 -0.250000  0.250000     12.000000
 -0.250000 -0.416667  0.250000     12.000000
  0.250000  0.416667 -0.250000     12.000000
 -0.416667 -0.416667  0.250000     12.000000
  0.416667  0.416667 -0.250000     12.000000
  0.250000 -0.416667 -0.416667     12.000000
 -0.250000  0.416667  0.416667     12.000000
 -0.416667  0.250000 -0.416667     12.000000
  0.416667 -0.250000  0.416667     12.000000
 -0.416667  0.333333  0.000000     12.000000
  0.416667 -0.333333  0.000000     12.000000
 -0.416667  0.000000  0.333333     12.000000
  0.416667  0.000000 -0.333333     12.000000
  0.250000 -0.333333 -0.333333     12.000000
 -0.250000  0.333333  0.333333     12.000000
  0.333333  0.333333 -0.250000     12.000000
 -0.333333 -0.333333  0.250000     12.000000
  0.000000 -0.333333  0.416667     12.000000
  0.000000  0.333333 -0.416667     12.000000
 -0.333333  0.000000  0.416667     12.000000
  0.333333  0.000000 -0.416667     12.000000
  0.333333 -0.416667  0.000000     12.000000
 -0.333333  0.416667  0.000000     12.000000
 -0.333333  0.250000 -0.333333     12.000000
  0.333333 -0.250000  0.333333     12.000000
  0.000000 -0.416667  0.333333     12.000000
  0.000000  0.416667 -0.333333     12.000000
  0.416667  0.416667  0.416667     12.000000
 -0.416667 -0.416667 -0.416667     12.000000
  0.416667  0.000000  0.000000     12.000000
 -0.416667  0.000000  0.000000     12.000000
  0.000000  0.000000 -0.416667     12.000000
  0.000000  0.000000  0.416667     12.000000
  0.000000  0.416667  0.000000     12.000000
  0.000000 -0.416667  0.000000     12.000000
 -0.416667  0.416667  0.416667     12.000000
  0.416667 -0.416667 -0.416667     12.000000
  0.416667 -0.416667  0.416667     12.000000
 -0.416667  0.416667 -0.416667     12.000000
  0.416667  0.416667 -0.416667     12.000000
 -0.416667 -0.416667  0.416667     12.000000
  0.416667  0.000000 -0.166667     12.000000
 -0.416667  0.000000  0.166667     12.000000
 -0.416667  0.166667  0.166667     12.000000
  0.416667 -0.166667 -0.166667     12.000000
  0.416667 -0.166667  0.000000     12.000000
 -0.416667  0.166667  0.000000     12.000000
  0.000000  0.166667 -0.416667     12.000000
  0.000000 -0.166667  0.416667     12.000000
  0.166667  0.000000 -0.416667     12.000000
 -0.166667  0.000000  0.416667     12.000000
 -0.166667 -0.166667  0.416667     12.000000
  0.166667  0.166667 -0.416667     12.000000
  0.166667 -0.416667  0.166667     12.000000
 -0.166667  0.416667 -0.166667     12.000000
  0.000000  0.416667 -0.166667     12.000000
  0.000000 -0.416667  0.166667     12.000000
 -0.166667  0.416667  0.000000     12.000000
  0.166667 -0.416667  0.000000     12.000000
 
 Following cartesian coordinates:
            Coordinates               Weight
 -0.015240  0.015240  0.015240     12.000000
  0.015240 -0.015240 -0.015240     12.000000
 -0.015240 -0.015240  0.015240     12.000000
  0.015240  0.015240 -0.015240     12.000000
  0.015240 -0.015240  0.015240     12.000000
 -0.015240  0.015240 -0.015240     12.000000
  0.015240  0.015240  0.015240     12.000000
 -0.015240 -0.015240 -0.015240     12.000000
 -0.045721 -0.015240  0.045721     12.000000
  0.045721  0.015240 -0.045721     12.000000
  0.015240  0.045721  0.045721     12.000000
 -0.015240 -0.045721 -0.045721     12.000000
 -0.045721  0.045721 -0.015240     12.000000
  0.045721 -0.045721  0.015240     12.000000
  0.015240 -0.045721  0.045721     12.000000
 -0.015240  0.045721 -0.045721     12.000000
 -0.045721  0.015240  0.045721     12.000000
  0.045721 -0.015240 -0.045721     12.000000
 -0.045721 -0.045721 -0.015240     12.000000
  0.045721  0.045721  0.015240     12.000000
  0.045721  0.015240  0.045721     12.000000
 -0.045721 -0.015240 -0.045721     12.000000
 -0.015240 -0.045721  0.045721     12.000000
  0.015240  0.045721 -0.045721     12.000000
  0.045721 -0.045721 -0.015240     12.000000
 -0.045721  0.045721  0.015240     12.000000
 -0.015240  0.045721  0.045721     12.000000
  0.015240 -0.045721 -0.045721     12.000000
  0.045721 -0.015240  0.045721     12.000000
 -0.045721  0.015240 -0.045721     12.000000
  0.045721  0.045721 -0.015240     12.000000
 -0.045721 -0.045721  0.015240     12.000000
 -0.076201 -0.045721  0.076201     12.000000
  0.076201  0.045721 -0.076201     12.000000
  0.045721  0.076201  0.076201     12.000000
 -0.045721 -0.076201 -0.076201     12.000000
 -0.076201  0.076201 -0.045721     12.000000
  0.076201 -0.076201  0.045721     12.000000
  0.045721 -0.076201  0.076201     12.000000
 -0.045721  0.076201 -0.076201     12.000000
 -0.076201  0.045721  0.076201     12.000000
  0.076201 -0.045721 -0.076201     12.000000
 -0.076201 -0.076201 -0.045721     12.000000
  0.076201  0.076201  0.045721     12.000000
  0.076201  0.045721  0.076201     12.000000
 -0.076201 -0.045721 -0.076201     12.000000
 -0.045721 -0.076201  0.076201     12.000000
  0.045721  0.076201 -0.076201     12.000000
  0.076201 -0.076201 -0.045721     12.000000
 -0.076201  0.076201  0.045721     12.000000
 -0.045721  0.076201  0.076201     12.000000
  0.045721 -0.076201 -0.076201     12.000000
  0.076201 -0.045721  0.076201     12.000000
 -0.076201  0.045721 -0.076201     12.000000
  0.076201  0.076201 -0.045721     12.000000
 -0.076201 -0.076201  0.045721     12.000000
  0.076201  0.106681 -0.076201     12.000000
 -0.076201 -0.106681  0.076201     12.000000
 -0.106681 -0.076201 -0.076201     12.000000
  0.106681  0.076201  0.076201     12.000000
  0.076201 -0.076201  0.106681     12.000000
 -0.076201  0.076201 -0.106681     12.000000
 -0.106681  0.076201 -0.076201     12.000000
 -0.076201  0.106681 -0.106681     12.000000
  0.076201  0.259083 -0.076201     12.000000
 -0.076201  0.106681  0.076201     12.000000
  0.076201  0.076201  0.106681     12.000000
  0.106681  0.106681  0.076201     12.000000
  0.106681  0.076201  0.106681     12.000000
  0.076201  0.106681  0.076201     12.000000
 -0.076201 -0.106681  0.106681     12.000000
 -0.106681 -0.076201  0.076201     12.000000
 -0.076201  0.076201  0.106681     12.000000
  0.076201 -0.076201  0.259083     12.000000
 -0.259083 -0.076201 -0.076201     12.000000
 -0.106681  0.076201  0.076201     12.000000
 -0.076201  0.106681 -0.076201     12.000000
 -0.106681  0.076201 -0.106681     12.000000
 -0.076201 -0.076201  0.106681     12.000000
 -0.106681 -0.106681  0.076201     12.000000
  0.045721  0.076201 -0.045721     12.000000
 -0.045721 -0.076201  0.045721     12.000000
 -0.076201 -0.045721 -0.045721     12.000000
  0.076201  0.045721  0.045721     12.000000
  0.045721 -0.045721  0.076201     12.000000
 -0.045721  0.045721 -0.076201     12.000000
 -0.076201  0.045721 -0.045721     12.000000
  0.076201 -0.045721  0.045721     12.000000
  0.045721 -0.076201 -0.045721     12.000000
 -0.045721  0.076201  0.045721     12.000000
  0.045721  0.045721  0.076201     12.000000
 -0.045721 -0.045721 -0.076201     12.000000
 -0.045721 -0.076201 -0.045721     12.000000
  0.045721  0.076201  0.045721     12.000000
  0.076201  0.045721 -0.045721     12.000000
 -0.076201 -0.045721  0.045721     12.000000
 -0.045721  0.045721  0.076201     12.000000
  0.045721 -0.045721 -0.076201     12.000000
  0.076201 -0.045721 -0.045721     12.000000
 -0.076201  0.045721  0.045721     12.000000
 -0.045721  0.076201 -0.045721     12.000000
  0.045721 -0.076201  0.045721     12.000000
 -0.045721 -0.045721  0.076201     12.000000
  0.045721  0.045721 -0.076201     12.000000
  0.015240  0.045721 -0.015240     12.000000
 -0.015240 -0.045721  0.015240     12.000000
 -0.045721 -0.015240 -0.015240     12.000000
  0.045721  0.015240  0.015240     12.000000
  0.015240 -0.015240  0.045721     12.000000
 -0.015240  0.015240 -0.045721     12.000000
 -0.045721  0.015240 -0.015240     12.000000
  0.045721 -0.015240  0.015240     12.000000
  0.015240 -0.045721 -0.015240     12.000000
 -0.015240  0.045721  0.015240     12.000000
  0.015240  0.015240  0.045721     12.000000
 -0.015240 -0.015240 -0.045721     12.000000
 -0.015240 -0.045721 -0.015240     12.000000
  0.015240  0.045721  0.015240     12.000000
  0.045721  0.015240 -0.015240     12.000000
 -0.045721 -0.015240  0.015240     12.000000
 -0.015240  0.015240  0.045721     12.000000
  0.015240 -0.015240 -0.045721     12.000000
  0.045721 -0.015240 -0.015240     12.000000
 -0.045721  0.015240  0.015240     12.000000
 -0.015240  0.045721 -0.015240     12.000000
  0.015240 -0.045721  0.015240     12.000000
 -0.015240 -0.015240  0.045721     12.000000
  0.015240  0.015240 -0.045721     12.000000
 -0.015240  0.015240  0.076201     12.000000
  0.015240 -0.015240 -0.076201     12.000000
 -0.015240  0.076201  0.015240     12.000000
  0.015240 -0.076201 -0.015240     12.000000
 -0.076201  0.015240  0.015240     12.000000
  0.076201 -0.015240 -0.015240     12.000000
 -0.015240 -0.015240  0.076201     12.000000
  0.015240  0.015240 -0.076201     12.000000
 -0.076201 -0.015240  0.015240     12.000000
  0.076201  0.015240 -0.015240     12.000000
 -0.015240 -0.076201  0.015240     12.000000
  0.015240  0.076201 -0.015240     12.000000
  0.015240 -0.015240  0.076201     12.000000
 -0.015240  0.015240 -0.076201     12.000000
  0.015240 -0.076201  0.015240     12.000000
 -0.015240  0.076201 -0.015240     12.000000
  0.076201 -0.015240  0.015240     12.000000
 -0.076201  0.015240 -0.015240     12.000000
  0.015240  0.015240  0.076201     12.000000
 -0.015240 -0.015240 -0.076201     12.000000
  0.076201  0.015240  0.015240     12.000000
 -0.076201 -0.015240 -0.015240     12.000000
  0.015240  0.076201  0.015240     12.000000
 -0.015240 -0.076201 -0.015240     12.000000
 -0.045721 -0.015240  0.106681     12.000000
  0.045721  0.015240 -0.106681     12.000000
  0.015240  0.106681  0.045721     12.000000
 -0.015240 -0.106681 -0.045721     12.000000
 -0.106681  0.045721 -0.015240     12.000000
  0.106681 -0.045721  0.015240     12.000000
  0.015240 -0.045721  0.106681     12.000000
 -0.015240  0.045721 -0.106681     12.000000
 -0.106681  0.015240  0.045721     12.000000
  0.106681 -0.015240 -0.045721     12.000000
 -0.045721 -0.106681 -0.015240     12.000000
  0.045721  0.106681  0.015240     12.000000
  0.045721  0.015240  0.106681     12.000000
 -0.045721 -0.015240 -0.106681     12.000000
 -0.015240 -0.106681  0.045721     12.000000
  0.015240  0.106681 -0.045721     12.000000
  0.106681 -0.045721 -0.015240     12.000000
 -0.106681  0.045721  0.015240     12.000000
 -0.015240  0.045721  0.106681     12.000000
  0.015240 -0.045721 -0.106681     12.000000
  0.106681 -0.015240  0.045721     12.000000
 -0.106681  0.015240 -0.045721     12.000000
  0.045721  0.106681 -0.015240     12.000000
 -0.045721 -0.106681  0.015240     12.000000
 -0.015240  0.106681 -0.045721     12.000000
  0.015240 -0.106681  0.045721     12.000000
  0.106681  0.045721  0.015240     12.000000
 -0.106681 -0.045721 -0.015240     12.000000
  0.045721 -0.015240 -0.106681     12.000000
 -0.045721  0.015240  0.106681     12.000000
 -0.045721  0.106681  0.015240     12.000000
  0.045721 -0.106681 -0.015240     12.000000
  0.015240  0.045721 -0.106681     12.000000
 -0.015240 -0.045721  0.106681     12.000000
 -0.106681 -0.015240 -0.045721     12.000000
  0.106681  0.015240  0.045721     12.000000
 -0.106681 -0.045721  0.015240     12.000000
  0.106681  0.045721 -0.015240     12.000000
 -0.045721  0.015240 -0.106681     12.000000
  0.045721 -0.015240  0.106681     12.000000
  0.015240 -0.106681 -0.045721     12.000000
 -0.015240  0.106681  0.045721     12.000000
  0.106681  0.015240 -0.045721     12.000000
 -0.106681 -0.015240  0.045721     12.000000
 -0.015240 -0.045721 -0.106681     12.000000
  0.015240  0.045721  0.106681     12.000000
  0.045721 -0.106681  0.015240     12.000000
 -0.045721  0.106681 -0.015240     12.000000
  0.106681  0.137162 -0.045721     12.000000
 -0.106681 -0.137162  0.045721     12.000000
 -0.137162 -0.045721 -0.106681     12.000000
  0.137162  0.045721  0.106681     12.000000
  0.045721 -0.106681  0.137162     12.000000
 -0.045721  0.106681 -0.137162     12.000000
  0.045721 -0.076201  0.137162     12.000000
 -0.045721  0.076201 -0.137162     12.000000
  0.045721  0.228603 -0.106681     12.000000
 -0.228603 -0.045721 -0.076201     12.000000
  0.106681  0.045721  0.137162     12.000000
  0.076201  0.137162  0.045721     12.000000
  0.076201  0.045721  0.137162     12.000000
  0.106681  0.137162  0.045721     12.000000
 -0.045721 -0.137162  0.076201     12.000000
  0.045721  0.137162 -0.076201     12.000000
 -0.228603 -0.076201 -0.045721     12.000000
  0.045721 -0.106681  0.228603     12.000000
 -0.228603 -0.106681 -0.045721     12.000000
  0.045721 -0.076201  0.228603     12.000000
 -0.045721  0.137162 -0.106681     12.000000
 -0.137162  0.045721 -0.076201     12.000000
  0.076201  0.137162 -0.045721     12.000000
 -0.076201 -0.137162  0.045721     12.000000
 -0.045721  0.137162 -0.076201     12.000000
 -0.137162  0.045721 -0.106681     12.000000
  0.137162  0.076201  0.045721     12.000000
 -0.137162 -0.076201 -0.045721     12.000000
  0.076201 -0.045721  0.228603     12.000000
  0.106681  0.228603 -0.045721     12.000000
  0.106681 -0.045721  0.228603     12.000000
  0.076201  0.228603 -0.045721     12.000000
 -0.137162 -0.106681  0.045721     12.000000
 -0.045721 -0.076201  0.137162     12.000000
 -0.137162 -0.045721 -0.076201     12.000000
  0.137162  0.045721  0.076201     12.000000
 -0.137162 -0.076201  0.045721     12.000000
 -0.045721 -0.106681  0.137162     12.000000
 -0.076201  0.045721 -0.137162     12.000000
  0.076201 -0.045721  0.137162     12.000000
  0.045721  0.228603 -0.076201     12.000000
 -0.228603 -0.045721 -0.106681     12.000000
 -0.045721 -0.137162  0.106681     12.000000
  0.045721  0.137162 -0.106681     12.000000
  0.137162  0.106681  0.045721     12.000000
 -0.137162 -0.106681 -0.045721     12.000000
 -0.106681  0.045721 -0.137162     12.000000
  0.106681 -0.045721  0.137162     12.000000
  0.076201  0.106681 -0.015240     12.000000
 -0.076201 -0.106681  0.015240     12.000000
 -0.106681 -0.015240 -0.076201     12.000000
  0.106681  0.015240  0.076201     12.000000
  0.015240 -0.076201  0.106681     12.000000
 -0.015240  0.076201 -0.106681     12.000000
 -0.106681  0.076201 -0.015240     12.000000
 -0.076201  0.106681 -0.167642     12.000000
  0.198122  0.076201  0.106681     12.000000
 -0.015240  0.106681  0.076201     12.000000
  0.076201  0.015240  0.106681     12.000000
 -0.076201 -0.015240 -0.106681     12.000000
 -0.076201 -0.106681 -0.015240     12.000000
  0.076201  0.106681  0.015240     12.000000
 -0.076201 -0.167642  0.106681     12.000000
 -0.106681 -0.015240  0.076201     12.000000
 -0.015240  0.076201  0.106681     12.000000
  0.198122  0.106681  0.076201     12.000000
 -0.076201  0.106681 -0.198122     12.000000
 -0.106681  0.076201  0.015240     12.000000
 -0.015240  0.106681 -0.076201     12.000000
  0.015240 -0.106681  0.076201     12.000000
 -0.076201 -0.015240  0.106681     12.000000
 -0.106681 -0.167642  0.076201     12.000000
  0.106681 -0.015240  0.076201     12.000000
 -0.106681  0.015240 -0.076201     12.000000
  0.167642  0.106681  0.076201     12.000000
  0.015240  0.076201  0.106681     12.000000
 -0.076201  0.106681  0.015240     12.000000
 -0.106681  0.076201 -0.198122     12.000000
 -0.106681 -0.198122  0.076201     12.000000
 -0.076201  0.015240  0.106681     12.000000
 -0.106681 -0.076201  0.015240     12.000000
  0.106681  0.076201 -0.015240     12.000000
  0.015240  0.106681  0.076201     12.000000
  0.167642  0.076201  0.106681     12.000000
  0.015240  0.076201 -0.106681     12.000000
 -0.015240 -0.076201  0.106681     12.000000
 -0.106681  0.076201 -0.167642     12.000000
 -0.076201  0.106681 -0.015240     12.000000
 -0.106681  0.015240  0.076201     12.000000
 -0.076201 -0.198122  0.106681     12.000000
 -0.015240 -0.106681  0.076201     12.000000
  0.015240  0.106681 -0.076201     12.000000
  0.106681  0.076201  0.015240     12.000000
 -0.106681 -0.076201 -0.015240     12.000000
 -0.076201  0.015240 -0.106681     12.000000
  0.076201 -0.015240  0.106681     12.000000
  0.045721  0.076201  0.015240     12.000000
 -0.045721 -0.076201 -0.015240     12.000000
 -0.076201  0.015240 -0.045721     12.000000
  0.076201 -0.015240  0.045721     12.000000
 -0.015240 -0.045721  0.076201     12.000000
  0.015240  0.045721 -0.076201     12.000000
 -0.076201  0.045721  0.015240     12.000000
  0.076201 -0.045721 -0.015240     12.000000
 -0.015240 -0.076201 -0.045721     12.000000
  0.015240  0.076201  0.045721     12.000000
  0.045721 -0.015240  0.076201     12.000000
 -0.045721  0.015240 -0.076201     12.000000
 -0.045721 -0.076201  0.015240     12.000000
  0.045721  0.076201 -0.015240     12.000000
  0.076201 -0.015240 -0.045721     12.000000
 -0.076201  0.015240  0.045721     12.000000
  0.015240  0.045721  0.076201     12.000000
 -0.015240 -0.045721 -0.076201     12.000000
  0.076201 -0.045721  0.015240     12.000000
 -0.076201  0.045721 -0.015240     12.000000
  0.015240  0.076201 -0.045721     12.000000
 -0.015240 -0.076201  0.045721     12.000000
 -0.045721  0.015240  0.076201     12.000000
  0.045721 -0.015240 -0.076201     12.000000
  0.076201  0.015240  0.045721     12.000000
 -0.076201 -0.015240 -0.045721     12.000000
  0.015240 -0.045721 -0.076201     12.000000
 -0.015240  0.045721  0.076201     12.000000
 -0.045721  0.076201 -0.015240     12.000000
  0.045721 -0.076201  0.015240     12.000000
  0.045721  0.015240 -0.076201     12.000000
 -0.045721 -0.015240  0.076201     12.000000
 -0.076201 -0.045721 -0.015240     12.000000
  0.076201  0.045721  0.015240     12.000000
 -0.015240  0.076201  0.045721     12.000000
  0.015240 -0.076201 -0.045721     12.000000
 -0.015240  0.045721 -0.076201     12.000000
  0.015240 -0.045721  0.076201     12.000000
  0.045721 -0.076201 -0.015240     12.000000
 -0.045721  0.076201  0.015240     12.000000
 -0.076201 -0.015240  0.045721     12.000000
  0.076201  0.015240 -0.045721     12.000000
  0.015240 -0.076201  0.045721     12.000000
 -0.015240  0.076201 -0.045721     12.000000
  0.076201  0.045721 -0.015240     12.000000
 -0.076201 -0.045721  0.015240     12.000000
 -0.045721 -0.015240 -0.076201     12.000000
  0.045721  0.015240  0.076201     12.000000
 -0.015240  0.015240  0.137162     12.000000
  0.015240 -0.015240 -0.137162     12.000000
 -0.015240  0.137162  0.015240     12.000000
  0.015240 -0.137162 -0.015240     12.000000
 -0.137162  0.015240  0.015240     12.000000
  0.137162 -0.015240 -0.015240     12.000000
 -0.015240 -0.015240  0.137162     12.000000
  0.015240  0.015240 -0.137162     12.000000
 -0.137162 -0.015240  0.015240     12.000000
  0.137162  0.015240 -0.015240     12.000000
 -0.015240 -0.137162  0.015240     12.000000
  0.015240  0.137162 -0.015240     12.000000
  0.015240 -0.015240  0.137162     12.000000
 -0.015240  0.015240 -0.137162     12.000000
  0.015240 -0.137162  0.015240     12.000000
 -0.015240  0.137162 -0.015240     12.000000
  0.137162 -0.015240  0.015240     12.000000
 -0.137162  0.015240 -0.015240     12.000000
  0.015240  0.015240  0.137162     12.000000
 -0.015240 -0.015240 -0.137162     12.000000
  0.137162  0.015240  0.015240     12.000000
 -0.137162 -0.015240 -0.015240     12.000000
  0.015240  0.137162  0.015240     12.000000
 -0.015240 -0.137162 -0.015240     12.000000
  0.137162  0.167642 -0.015240     12.000000
 -0.137162 -0.167642  0.015240     12.000000
 -0.167642 -0.015240 -0.137162     12.000000
  0.167642  0.015240  0.137162     12.000000
  0.015240 -0.137162  0.167642     12.000000
 -0.015240  0.137162 -0.167642     12.000000
  0.015240 -0.045721  0.167642     12.000000
 -0.015240  0.045721 -0.167642     12.000000
  0.015240  0.198122 -0.137162     12.000000
 -0.198122 -0.015240 -0.045721     12.000000
  0.137162  0.015240  0.167642     12.000000
  0.045721  0.167642  0.015240     12.000000
  0.045721  0.015240  0.167642     12.000000
  0.137162  0.167642  0.015240     12.000000
 -0.015240 -0.167642  0.045721     12.000000
  0.015240  0.167642 -0.045721     12.000000
 -0.198122 -0.045721 -0.015240     12.000000
  0.015240 -0.137162  0.198122     12.000000
 -0.198122 -0.137162 -0.015240     12.000000
  0.015240 -0.045721  0.198122     12.000000
 -0.015240  0.167642 -0.137162     12.000000
 -0.167642  0.015240 -0.045721     12.000000
  0.045721  0.167642 -0.015240     12.000000
 -0.045721 -0.167642  0.015240     12.000000
 -0.015240  0.167642 -0.045721     12.000000
 -0.167642  0.015240 -0.137162     12.000000
  0.167642  0.045721  0.015240     12.000000
 -0.167642 -0.045721 -0.015240     12.000000
  0.045721 -0.015240  0.198122     12.000000
  0.137162  0.198122 -0.015240     12.000000
  0.137162 -0.015240  0.198122     12.000000
  0.045721  0.198122 -0.015240     12.000000
 -0.167642 -0.137162  0.015240     12.000000
 -0.015240 -0.045721  0.167642     12.000000
 -0.167642 -0.015240 -0.045721     12.000000
  0.167642  0.015240  0.045721     12.000000
 -0.167642 -0.045721  0.015240     12.000000
 -0.015240 -0.137162  0.167642     12.000000
 -0.045721  0.015240 -0.167642     12.000000
  0.045721 -0.015240  0.167642     12.000000
  0.015240  0.198122 -0.045721     12.000000
 -0.198122 -0.015240 -0.137162     12.000000
 -0.015240 -0.167642  0.137162     12.000000
  0.015240  0.167642 -0.137162     12.000000
  0.167642  0.137162  0.015240     12.000000
 -0.167642 -0.137162 -0.015240     12.000000
 -0.137162  0.015240 -0.167642     12.000000
  0.137162 -0.015240  0.167642     12.000000
  0.106681  0.137162  0.015240     12.000000
 -0.106681 -0.137162 -0.015240     12.000000
 -0.137162  0.015240 -0.106681     12.000000
  0.137162 -0.015240  0.106681     12.000000
 -0.015240 -0.106681  0.137162     12.000000
  0.015240  0.106681 -0.137162     12.000000
  0.045721 -0.076201  0.198122     12.000000
 -0.045721  0.076201 -0.198122     12.000000
  0.167642  0.045721  0.076201     12.000000
 -0.167642 -0.045721 -0.076201     12.000000
  0.106681 -0.015240  0.137162     12.000000
 -0.106681  0.015240 -0.137162     12.000000
 -0.106681 -0.137162  0.015240     12.000000
  0.106681  0.137162 -0.015240     12.000000
 -0.045721 -0.198122  0.076201     12.000000
  0.045721  0.198122 -0.076201     12.000000
 -0.167642 -0.076201 -0.045721     12.000000
  0.167642  0.076201  0.045721     12.000000
 -0.045721  0.076201 -0.167642     12.000000
  0.045721 -0.076201  0.167642     12.000000
  0.015240  0.137162 -0.106681     12.000000
 -0.015240 -0.137162  0.106681     12.000000
  0.076201  0.198122 -0.045721     12.000000
 -0.076201 -0.198122  0.045721     12.000000
  0.137162  0.015240  0.106681     12.000000
 -0.137162 -0.015240 -0.106681     12.000000
  0.198122  0.076201  0.045721     12.000000
 -0.198122 -0.076201 -0.045721     12.000000
  0.076201 -0.045721  0.167642     12.000000
 -0.076201  0.045721 -0.167642     12.000000
 -0.076201 -0.167642  0.045721     12.000000
  0.076201  0.167642 -0.045721     12.000000
 -0.137162 -0.106681 -0.015240     12.000000
  0.137162  0.106681  0.015240     12.000000
 -0.198122 -0.045721 -0.076201     12.000000
  0.198122  0.045721  0.076201     12.000000
 -0.015240  0.106681 -0.137162     12.000000
  0.015240 -0.106681  0.137162     12.000000
 -0.076201  0.045721 -0.198122     12.000000
  0.076201 -0.045721  0.198122     12.000000
  0.045721  0.167642 -0.076201     12.000000
 -0.045721 -0.167642  0.076201     12.000000
  0.015240 -0.137162  0.106681     12.000000
 -0.015240  0.137162 -0.106681     12.000000
  0.137162  0.106681 -0.015240     12.000000
 -0.137162 -0.106681  0.015240     12.000000
 -0.106681 -0.015240 -0.137162     12.000000
  0.106681  0.015240  0.137162     12.000000
  0.076201  0.106681  0.045721     12.000000
 -0.076201 -0.106681 -0.045721     12.000000
 -0.106681  0.045721 -0.076201     12.000000
  0.106681 -0.045721  0.076201     12.000000
 -0.045721 -0.076201  0.106681     12.000000
  0.045721  0.076201 -0.106681     12.000000
 -0.106681  0.076201  0.045721     12.000000
 -0.076201  0.106681 -0.228603     12.000000
  0.137162  0.076201  0.106681     12.000000
  0.045721  0.106681  0.076201     12.000000
  0.076201 -0.045721  0.106681     12.000000
 -0.076201  0.045721 -0.106681     12.000000
 -0.076201 -0.106681  0.045721     12.000000
  0.076201  0.106681 -0.045721     12.000000
 -0.076201 -0.228603  0.106681     12.000000
 -0.106681  0.045721  0.076201     12.000000
  0.045721  0.076201  0.106681     12.000000
  0.137162  0.106681  0.076201     12.000000
 -0.076201  0.106681 -0.137162     12.000000
 -0.106681  0.076201 -0.045721     12.000000
  0.045721  0.106681 -0.076201     12.000000
 -0.045721 -0.106681  0.076201     12.000000
 -0.076201  0.045721  0.106681     12.000000
 -0.106681 -0.228603  0.076201     12.000000
  0.106681  0.045721  0.076201     12.000000
 -0.106681 -0.045721 -0.076201     12.000000
  0.228603  0.106681  0.076201     12.000000
 -0.045721  0.076201  0.106681     12.000000
 -0.076201  0.106681 -0.045721     12.000000
 -0.106681  0.076201 -0.137162     12.000000
 -0.106681 -0.137162  0.076201     12.000000
 -0.076201 -0.045721  0.106681     12.000000
 -0.106681 -0.076201 -0.045721     12.000000
  0.106681  0.076201  0.045721     12.000000
 -0.045721  0.106681  0.076201     12.000000
  0.228603  0.076201  0.106681     12.000000
 -0.045721  0.076201 -0.106681     12.000000
  0.045721 -0.076201  0.106681     12.000000
 -0.106681  0.076201 -0.228603     12.000000
 -0.076201  0.106681  0.045721     12.000000
 -0.106681 -0.045721  0.076201     12.000000
 -0.076201 -0.137162  0.106681     12.000000
  0.045721 -0.106681  0.076201     12.000000
 -0.045721  0.106681 -0.076201     12.000000
  0.106681  0.076201 -0.045721     12.000000
 -0.106681 -0.076201  0.045721     12.000000
 -0.076201 -0.045721 -0.106681     12.000000
  0.076201  0.045721  0.106681     12.000000
 -0.015240  0.015240 -0.167642     12.000000
  0.015240 -0.015240  0.167642     12.000000
 -0.015240 -0.167642  0.015240     12.000000
  0.015240  0.167642 -0.015240     12.000000
  0.167642  0.015240  0.015240     12.000000
 -0.167642 -0.015240 -0.015240     12.000000
  0.167642  0.167642  0.015240     12.000000
  0.015240  0.015240  0.167642     12.000000
 -0.015240  0.167642 -0.167642     12.000000
 -0.167642  0.015240 -0.015240     12.000000
 -0.015240  0.167642  0.015240     12.000000
  0.015240  0.198122 -0.015240     12.000000
  0.015240 -0.015240  0.198122     12.000000
 -0.015240  0.015240  0.167642     12.000000
  0.015240  0.167642  0.015240     12.000000
  0.167642  0.015240  0.167642     12.000000
 -0.167642 -0.015240  0.015240     12.000000
 -0.015240 -0.167642  0.167642     12.000000
 -0.167642 -0.167642  0.015240     12.000000
 -0.015240 -0.015240  0.167642     12.000000
 -0.167642  0.015240  0.015240     12.000000
 -0.198122 -0.015240 -0.015240     12.000000
 -0.167642  0.015240 -0.167642     12.000000
 -0.015240  0.167642 -0.015240     12.000000
 -0.045721 -0.015240 -0.137162     12.000000
  0.045721  0.015240  0.137162     12.000000
  0.015240 -0.137162  0.045721     12.000000
 -0.015240  0.137162 -0.045721     12.000000
  0.137162  0.045721 -0.015240     12.000000
 -0.137162 -0.045721  0.015240     12.000000
  0.198122  0.137162  0.045721     12.000000
 -0.015240  0.045721  0.137162     12.000000
  0.137162  0.015240  0.045721     12.000000
 -0.137162 -0.015240 -0.045721     12.000000
 -0.045721  0.137162 -0.015240     12.000000
 -0.137162  0.045721 -0.167642     12.000000
 -0.137162 -0.167642  0.045721     12.000000
 -0.045721 -0.015240  0.137162     12.000000
 -0.015240  0.137162  0.045721     12.000000
  0.198122  0.045721  0.137162     12.000000
 -0.137162 -0.045721 -0.015240     12.000000
  0.137162  0.045721  0.015240     12.000000
 -0.015240  0.045721 -0.137162     12.000000
  0.015240 -0.045721  0.137162     12.000000
 -0.137162 -0.015240  0.045721     12.000000
 -0.045721 -0.167642  0.137162     12.000000
 -0.137162  0.045721 -0.198122     12.000000
 -0.045721  0.137162  0.015240     12.000000
  0.167642  0.045721  0.137162     12.000000
  0.015240  0.137162  0.045721     12.000000
 -0.137162  0.045721  0.015240     12.000000
 -0.045721  0.137162 -0.198122     12.000000
  0.045721 -0.015240  0.137162     12.000000
 -0.045721  0.015240 -0.137162     12.000000
 -0.045721 -0.137162  0.015240     12.000000
  0.045721  0.137162 -0.015240     12.000000
  0.015240  0.045721  0.137162     12.000000
  0.167642  0.137162  0.045721     12.000000
 -0.045721 -0.198122  0.137162     12.000000
 -0.137162  0.015240  0.045721     12.000000
 -0.045721  0.137162 -0.167642     12.000000
 -0.137162  0.045721 -0.015240     12.000000
 -0.045721  0.015240  0.137162     12.000000
 -0.137162 -0.198122  0.045721     12.000000
  0.015240  0.137162 -0.045721     12.000000
 -0.015240 -0.137162  0.045721     12.000000
 -0.137162  0.015240 -0.045721     12.000000
  0.137162 -0.015240  0.045721     12.000000
 -0.015240 -0.045721  0.137162     12.000000
  0.015240  0.045721 -0.137162     12.000000
  0.045721  0.137162  0.015240     12.000000
 -0.045721 -0.137162 -0.015240     12.000000
 -0.015240  0.015240 -0.106681     12.000000
  0.015240 -0.015240  0.106681     12.000000
 -0.015240 -0.106681  0.015240     12.000000
  0.015240  0.106681 -0.015240     12.000000
  0.106681  0.015240  0.015240     12.000000
 -0.106681 -0.015240 -0.015240     12.000000
 -0.015240 -0.015240 -0.106681     12.000000
  0.015240  0.015240  0.106681     12.000000
  0.106681 -0.015240  0.015240     12.000000
 -0.106681  0.015240 -0.015240     12.000000
 -0.015240  0.106681  0.015240     12.000000
  0.015240 -0.106681 -0.015240     12.000000
  0.015240 -0.015240 -0.106681     12.000000
 -0.015240  0.015240  0.106681     12.000000
  0.015240  0.106681  0.015240     12.000000
 -0.015240 -0.106681 -0.015240     12.000000
 -0.106681 -0.015240  0.015240     12.000000
  0.106681  0.015240 -0.015240     12.000000
  0.015240  0.015240 -0.106681     12.000000
 -0.015240 -0.015240  0.106681     12.000000
 -0.106681  0.015240  0.015240     12.000000
  0.106681 -0.015240 -0.015240     12.000000
  0.015240 -0.106681  0.015240     12.000000
 -0.015240  0.106681 -0.015240     12.000000
 -0.045721  0.045721  0.045721     12.000000
  0.045721 -0.045721 -0.045721     12.000000
 -0.045721 -0.045721  0.045721     12.000000
  0.045721  0.045721 -0.045721     12.000000
  0.045721 -0.045721  0.045721     12.000000
 -0.045721  0.045721 -0.045721     12.000000
  0.045721  0.045721  0.045721     12.000000
 -0.045721 -0.045721 -0.045721     12.000000
 -0.076201  0.015240  0.076201     12.000000
  0.076201 -0.015240 -0.076201     12.000000
 -0.015240  0.076201  0.076201     12.000000
  0.015240 -0.076201 -0.076201     12.000000
 -0.076201  0.076201  0.015240     12.000000
  0.076201 -0.076201 -0.015240     12.000000
 -0.015240 -0.076201  0.076201     12.000000
  0.015240  0.076201 -0.076201     12.000000
 -0.076201 -0.015240  0.076201     12.000000
  0.076201  0.015240 -0.076201     12.000000
 -0.076201 -0.076201  0.015240     12.000000
  0.076201  0.076201 -0.015240     12.000000
  0.076201 -0.015240  0.076201     12.000000
 -0.076201  0.015240 -0.076201     12.000000
  0.015240 -0.076201  0.076201     12.000000
 -0.015240  0.076201 -0.076201     12.000000
  0.076201 -0.076201  0.015240     12.000000
 -0.076201  0.076201 -0.015240     12.000000
  0.015240  0.076201  0.076201     12.000000
 -0.015240 -0.076201 -0.076201     12.000000
  0.076201  0.015240  0.076201     12.000000
 -0.076201 -0.015240 -0.076201     12.000000
  0.076201  0.076201  0.015240     12.000000
 -0.076201 -0.076201 -0.015240     12.000000
  0.076201  0.167642 -0.076201     12.000000
 -0.076201 -0.167642  0.076201     12.000000
 -0.167642 -0.076201 -0.076201     12.000000
  0.167642  0.076201  0.076201     12.000000
  0.076201 -0.076201  0.167642     12.000000
 -0.076201  0.076201 -0.167642     12.000000
  0.015240 -0.106681  0.106681     12.000000
 -0.015240  0.106681 -0.106681     12.000000
  0.076201  0.198122 -0.076201     12.000000
 -0.076201 -0.198122  0.076201     12.000000
 -0.106681 -0.106681 -0.015240     12.000000
  0.106681  0.106681  0.015240     12.000000
  0.106681  0.015240  0.106681     12.000000
 -0.106681 -0.015240 -0.106681     12.000000
 -0.015240 -0.106681  0.106681     12.000000
  0.015240  0.106681 -0.106681     12.000000
 -0.076201  0.076201 -0.198122     12.000000
  0.076201 -0.076201  0.198122     12.000000
 -0.198122 -0.076201 -0.076201     12.000000
  0.198122  0.076201  0.076201     12.000000
  0.106681 -0.015240  0.106681     12.000000
 -0.106681  0.015240 -0.106681     12.000000
  0.106681  0.106681 -0.015240     12.000000
 -0.106681 -0.106681  0.015240     12.000000
  0.045721  0.137162 -0.045721     12.000000
 -0.045721 -0.137162  0.045721     12.000000
 -0.137162 -0.045721 -0.045721     12.000000
  0.137162  0.045721  0.045721     12.000000
  0.045721 -0.045721  0.137162     12.000000
 -0.045721  0.045721 -0.137162     12.000000
 -0.137162  0.045721 -0.045721     12.000000
 -0.045721  0.137162 -0.137162     12.000000
  0.045721  0.228603 -0.045721     12.000000
 -0.045721  0.137162  0.045721     12.000000
  0.045721  0.045721  0.137162     12.000000
  0.137162  0.137162  0.045721     12.000000
  0.137162  0.045721  0.137162     12.000000
  0.045721  0.137162  0.045721     12.000000
 -0.045721 -0.137162  0.137162     12.000000
 -0.137162 -0.045721  0.045721     12.000000
 -0.045721  0.045721  0.137162     12.000000
  0.045721 -0.045721  0.228603     12.000000
 -0.228603 -0.045721 -0.045721     12.000000
 -0.137162  0.045721  0.045721     12.000000
 -0.045721  0.137162 -0.045721     12.000000
 -0.137162  0.045721 -0.137162     12.000000
 -0.045721 -0.045721  0.137162     12.000000
 -0.137162 -0.137162  0.045721     12.000000
 -0.045721  0.045721  0.106681     12.000000
  0.045721 -0.045721 -0.106681     12.000000
 -0.045721  0.106681  0.045721     12.000000
  0.045721 -0.106681 -0.045721     12.000000
 -0.106681  0.045721  0.045721     12.000000
  0.106681 -0.045721 -0.045721     12.000000
 -0.045721 -0.045721  0.106681     12.000000
  0.045721  0.045721 -0.106681     12.000000
 -0.106681 -0.045721  0.045721     12.000000
  0.106681  0.045721 -0.045721     12.000000
 -0.045721 -0.106681  0.045721     12.000000
  0.045721  0.106681 -0.045721     12.000000
  0.045721 -0.045721  0.106681     12.000000
 -0.045721  0.045721 -0.106681     12.000000
  0.045721 -0.106681  0.045721     12.000000
 -0.045721  0.106681 -0.045721     12.000000
  0.106681 -0.045721  0.045721     12.000000
 -0.106681  0.045721 -0.045721     12.000000
  0.045721  0.045721  0.106681     12.000000
 -0.045721 -0.045721 -0.106681     12.000000
  0.106681  0.045721  0.045721     12.000000
 -0.106681 -0.045721 -0.045721     12.000000
  0.045721  0.106681  0.045721     12.000000
 -0.045721 -0.106681 -0.045721     12.000000
  0.106681  0.198122 -0.045721     12.000000
 -0.106681 -0.198122  0.045721     12.000000
 -0.198122 -0.045721 -0.106681     12.000000
[...]
  0.000   0.000   0.000   0.000   0.000   0.000   0.000   0.000  -0.001   0.000   0.000   0.000   0.000   0.000   0.000   0.000
  0.000   0.000   0.000   0.000   0.000   0.000   0.000   0.000   0.000   0.000   0.000   0.000   0.000   0.000   0.000   0.000
  0.000   0.000   0.000  -0.001   0.000   0.000   0.000   0.000   0.000   0.000   0.000   0.000   0.000   0.000   0.000   0.000
  0.000   0.000   0.000   0.000  -0.003   0.000   0.000   0.001   0.000   0.000   0.000   0.000   0.000   0.000   0.000   0.000
  0.000   0.000   0.000   0.004   0.000   0.000  -0.002   0.000   0.000   0.000   0.000   0.000   0.000   0.000   0.000   0.000
  0.000   0.000  -0.001   0.000   0.000   0.000   0.000   0.000   0.000   0.000   0.000   0.000   0.000   0.000   0.000   0.000
  0.000   0.000   0.000   0.000   0.000   0.000   0.000   0.000   0.000   0.000   0.000   0.000   0.000   0.000   0.000   0.000
  0.000   0.000   0.005   0.000   0.000  -0.001   0.000   0.000   0.000   0.000   0.000   0.000   0.000   0.000   0.000   0.000
  0.000   0.000   0.000   0.000   0.000   0.000   0.000   0.000   0.000   0.000   0.000   0.000   0.000   0.000   0.000   0.000
  0.000   0.000   0.000   0.000   0.000   0.000   0.000   0.000   0.000   0.000   0.000   0.000   0.000   0.000   0.000   0.000
  0.000   0.000   0.000   0.000   0.001   0.000   0.000   0.000   0.000   0.000   0.000   0.000   0.000   0.000   0.000   0.000
  0.000   0.000   0.000   0.000   0.000   0.000   0.000   0.000   0.000   0.000   0.000   0.000   0.000   0.000   0.000   0.000
  0.000   0.000   0.000   0.000   0.000   0.000   0.000   0.000   0.000   0.000   0.000   0.000   0.000   0.000   0.000   0.000
  0.000   0.000   0.000   0.000   0.000   0.000   0.000   0.000   0.000   0.000   0.000   0.000   0.000   0.000   0.000   0.000
  0.000   0.000   0.000   0.000   0.000   0.000   0.000   0.000   0.000   0.000   0.000   0.000   0.000   0.000   0.000   0.000
  0.000   0.000   0.000   0.000   0.000   0.000   0.000   0.000   0.000   0.000   0.000   0.000   0.000   0.000   0.000   0.000
 total augmentation occupancy for first ion, spin component:           4
  0.033  -0.041   0.000   0.000   0.000   0.000   0.000   0.000   0.000   0.000  -0.001   0.000   0.000   0.000   0.000  -0.006
 -0.041   0.038   0.000   0.000   0.000   0.000   0.000   0.000   0.000   0.000   0.000   0.000   0.000   0.000   0.000   0.002
  0.000   0.000   0.006   0.000   0.000  -0.006   0.000   0.000   0.000   0.000   0.000   0.000   0.000   0.000   0.000   0.000
  0.000   0.000   0.000   0.005   0.000   0.000  -0.006   0.000   0.000   0.000   0.000   0.000   0.000   0.000   0.000   0.000
  0.000   0.000   0.000   0.000   0.006   0.000   0.000  -0.006   0.000   0.000   0.000   0.000   0.000   0.000   0.000   0.000
  0.000   0.000  -0.006   0.000   0.000   0.001   0.000   0.000   0.000   0.000   0.000   0.000   0.000   0.000   0.000   0.000
  0.000   0.000   0.000  -0.006   0.000   0.000   0.001   0.000   0.000   0.000   0.000   0.000   0.000   0.000   0.000   0.000
  0.000   0.000   0.000   0.000  -0.006   0.000   0.000   0.001   0.000   0.000   0.000   0.000   0.000   0.000   0.000   0.000
  0.000   0.000   0.000   0.000   0.000   0.000   0.000   0.000   0.008   0.000   0.000   0.000   0.000   0.003   0.000   0.000
  0.000   0.000   0.000   0.000   0.000   0.000   0.000   0.000   0.000   0.008   0.000   0.000   0.000   0.000   0.003   0.000
 -0.001   0.000   0.000   0.000   0.000   0.000   0.000   0.000   0.000   0.000   0.005   0.000   0.000   0.000   0.000   0.001
  0.000   0.000   0.000   0.000   0.000   0.000   0.000   0.000   0.000   0.000   0.000   0.008   0.000   0.000   0.000   0.000
  0.000   0.000   0.000   0.000   0.000   0.000   0.000   0.000   0.000   0.000   0.000   0.000   0.005   0.000   0.000   0.000
  0.000   0.000   0.000   0.000   0.000   0.000   0.000   0.000   0.003   0.000   0.000   0.000   0.000  -0.010   0.000   0.000
  0.000   0.000   0.000   0.000   0.000   0.000   0.000   0.000   0.000   0.003   0.000   0.000   0.000   0.000  -0.010   0.000
 -0.006   0.002   0.000   0.000   0.000   0.000   0.000   0.000   0.000   0.000   0.001   0.000   0.000   0.000   0.000  -0.003
  0.000   0.000   0.000   0.000   0.000   0.000   0.000   0.000   0.000   0.000   0.000   0.003   0.000   0.000   0.000   0.000
  0.000   0.000   0.000   0.000   0.000   0.000   0.000   0.000   0.000   0.000   0.000   0.000   0.001   0.000   0.000   0.000
  0.000   0.000   0.006   0.000   0.000  -0.002   0.000   0.000   0.000   0.000   0.000   0.000   0.000   0.000   0.000   0.000
  0.000   0.000   0.000   0.000   0.000   0.000   0.000   0.000   0.000   0.000   0.000   0.000   0.000   0.000   0.000   0.000
  0.000   0.000   0.000   0.000   0.000  -0.001   0.000   0.000   0.000   0.000   0.000   0.000   0.000   0.000   0.000   0.000
  0.000   0.000   0.000   0.001   0.000   0.000   0.000   0.000   0.000   0.000   0.000   0.000   0.000   0.000   0.000   0.000
  0.000   0.000   0.000   0.000   0.000   0.000   0.000  -0.001   0.000   0.000   0.000   0.000   0.000   0.000   0.000   0.000
  0.000   0.000   0.000   0.000   0.000   0.000   0.000   0.000   0.000   0.000   0.000   0.000   0.000   0.000   0.000   0.000
  0.000   0.000   0.000   0.000  -0.006   0.000   0.000   0.002   0.000   0.000   0.000   0.000   0.000   0.000   0.000   0.000
  0.000   0.000   0.001   0.000   0.000   0.000   0.000   0.000   0.000   0.000   0.000   0.000   0.000   0.000   0.000   0.000
  0.000   0.000   0.000   0.000   0.000   0.000   0.000   0.000   0.000   0.000   0.000   0.000   0.000   0.000   0.000   0.000
  0.000   0.000   0.001   0.000   0.000   0.000   0.000   0.000   0.000   0.000   0.000   0.000   0.000   0.000   0.000   0.000
  0.000   0.000   0.000  -0.001   0.000   0.000   0.000   0.000   0.000   0.000   0.000   0.000   0.000   0.000   0.000   0.000
  0.000   0.000   0.000   0.000   0.001   0.000   0.000   0.000   0.000   0.000   0.000   0.000   0.000   0.000   0.000   0.000
  0.000   0.000   0.000   0.000   0.000   0.000   0.000   0.000   0.000   0.000   0.000   0.000   0.000   0.000   0.000   0.000
  0.000   0.000   0.000   0.000  -0.001   0.000   0.000   0.000   0.000   0.000   0.000   0.000   0.000   0.000   0.000   0.000


------------------------ aborting loop because EDIFF is reached ----------------------------------------


 


 total charge     
 
# of ion     s       p       d       f       tot
------------------------------------------------
  1        2.146   5.956   0.707   2.839  11.648
  2        1.576   3.480   0.000   0.000   5.056
  3        1.576   3.480   0.000   0.000   5.056
------------------------------------------------
tot        5.298  12.917   0.707   2.839  21.760

 


 magnetization (x)
 
# of ion     s       p       d       f       tot
------------------------------------------------
  1        0.000   0.000   0.000   0.008   0.008
  2       -0.000  -0.000   0.000   0.000  -0.000
  3       -0.000  -0.000   0.000   0.000  -0.000
------------------------------------------------
tot        0.000  -0.000   0.000   0.008   0.008

 


 magnetization (y)
 
# of ion     s       p       d       f       tot
------------------------------------------------
  1        0.000   0.000   0.000   0.004   0.004
  2       -0.000  -0.000   0.000   0.000  -0.000
  3       -0.000  -0.000   0.000   0.000  -0.000
------------------------------------------------
tot        0.000  -0.000   0.000   0.004   0.004

 


 magnetization (z)
 
# of ion     s       p       d       f       tot
------------------------------------------------
  1        0.005   0.002   0.017   1.269   1.292
  2       -0.002  -0.027   0.000   0.000  -0.029
  3       -0.002  -0.027   0.000   0.000  -0.029
------------------------------------------------
tot        0.001  -0.052   0.017   1.269   1.235

 
    CHARGE:  cpu time    2.97: real time    2.97
    FORLOC:  cpu time    0.00: real time    0.00
    FORNL :  cpu time    2.52: real time    2.52
    STRESS:  cpu time    4.89: real time    4.89
    FORCOR:  cpu time    0.01: real time    0.01
    FORHAR:  cpu time    0.00: real time    0.00
    MIXING:  cpu time    0.00: real time    0.00
    FORVDW:  cpu time    0.00: real time    0.00

  FORCE on cell =-STRESS in cart. coord.  units (eV):
  Direction    XX          YY          ZZ          XY          YZ          ZX
  --------------------------------------------------------------------------------------
  Alpha Z   151.51828   151.51828   151.51828
  Ewald    -692.01109  -692.01109  -692.01109     0.00000     0.00000     0.00000
  Hartree   131.06763   131.06760   131.08306    -0.00228     0.00025     0.00083
  E(xc)    -116.00449  -116.00447  -116.01178     0.00009     0.00000    -0.00001
  Local     -30.46627   -30.46500   -30.80485     0.00887     0.00001    -0.00173
  n-local    61.25467    61.25469    61.14932     0.00220     0.00000     0.00019
  augment     3.28310     3.28244     3.48498    -0.00411    -0.00044    -0.00008
  Kinetic   490.11548   490.11511   490.54404    -0.00322     0.00002     0.00007
  Fock        0.00000     0.00000     0.00000     0.00000     0.00000     0.00000
  -------------------------------------------------------------------------------------
  Total      -1.24270    -1.24245    -1.04806     0.00156    -0.00016    -0.00074
  in kB     -48.71383   -48.70381   -41.08370     0.06134    -0.00627    -0.02904
  external pressure =      -46.17 kB  Pullay stress =        0.00 kB


 VOLUME and BASIS-vectors are now :
 -----------------------------------------------------------------------------
  energy-cutoff  :      420.00
  volume of cell :       40.87
      direct lattice vectors                 reciprocal lattice vectors
    -2.734000000  0.000000000  2.734000000    -0.182882224 -0.182882224  0.182882224
     0.000000000  2.734000000  2.734000000     0.182882224  0.182882224  0.182882224
    -2.734000000  2.734000000  0.000000000    -0.182882224  0.182882224 -0.182882224

  length of vectors
     3.866459880  3.866459880  3.866459880     0.316761304  0.316761304  0.316761304


 FORCES acting on ions
    electron-ion (+dipol)            ewald-force                    non-local-force                 convergence-correction
 -----------------------------------------------------------------------------------------------
   -.528E-04 -.202E-04 0.278E-04   -.348E-14 -.360E-15 -.197E-14   0.965E-05 0.825E-05 -.134E-04   0.420E-04 0.180E-04 -.170E-04
   0.322E-03 0.217E-03 0.105E-03   0.949E-14 0.960E-14 0.374E-14   -.222E-03 -.409E-03 -.585E-03   -.519E-04 0.213E-03 -.282E-03
   -.330E-03 -.203E-03 -.117E-03   -.551E-14 -.813E-14 -.223E-14   0.222E-03 0.428E-03 0.590E-03   0.486E-04 -.233E-03 0.287E-03
 -----------------------------------------------------------------------------------------------
   -.612E-04 -.678E-05 0.157E-04   0.499E-15 0.111E-14 -.464E-15   0.935E-05 0.269E-04 -.909E-05   0.386E-04 -.143E-05 -.116E-04
 
 
 POSITION                                       TOTAL-FORCE (eV/Angst)
 -----------------------------------------------------------------------------------
      0.00000      0.00000      0.00000         0.000003      0.000000     -0.000001
     -4.10100      4.10100      4.10100         0.000052      0.000014     -0.000761
     -1.36700      1.36700      1.36700        -0.000055     -0.000014      0.000762
 -----------------------------------------------------------------------------------
    total drift:                               -0.000013      0.000019     -0.000005


--------------------------------------------------------------------------------------------------------



  FREE ENERGIE OF THE ION-ELECTRON SYSTEM (eV)
  ---------------------------------------------------
  free  energy   TOTEN  =       -34.53976153 eV

  energy  without entropy=      -34.53976153  energy(sigma->0) =      -34.53976153
 


--------------------------------------------------------------------------------------------------------


    POTLOK:  cpu time    1.09: real time    1.09


--------------------------------------------------------------------------------------------------------


 writing wavefunctions
     LOOP+:  cpu time  587.50: real time  850.44
    4ORBIT:  cpu time    0.00: real time    0.00
 


 orbital moment (x)
 
 # of ion     p       d       f       tot
 ------------------------------------------------
  1         0.000   0.000  -0.011  -0.011
  2         0.000   0.000   0.000   0.000
  3         0.000   0.000   0.000   0.000
 ------------------------------------------------
            0.000   0.000  -0.011  -0.011
 


 orbital moment (y)
 
 # of ion     p       d       f       tot
 ------------------------------------------------
  1         0.000   0.000  -0.007  -0.007
  2         0.000   0.000   0.000   0.000
  3         0.000   0.000   0.000   0.000
 ------------------------------------------------
            0.000   0.000  -0.007  -0.007
 


 orbital moment (z)
 
 # of ion     p       d       f       tot
 ------------------------------------------------
  1        -0.001   0.000  -1.428  -1.429
  2         0.000   0.000   0.000   0.000
  3         0.000   0.000   0.000   0.000
 ------------------------------------------------
            0.000   0.000  -1.428  -1.428

 Spin-Orbit-Coupling matrix elements

 Ion:    1  E_soc:     -6.1954249
 l=   1
     0.0000000    -0.8965136    -0.8961710
    -0.8965136     0.0000000    -0.8965133
    -0.8961710    -0.8965133     0.0000000
 l=   2
     0.0000000    -0.0011171     0.0000000    -0.0011171    -0.0037532
    -0.0011171     0.0000000    -0.0028691    -0.0010842    -0.0009508
     0.0000000    -0.0028691     0.0000000    -0.0028691     0.0000000
    -0.0011171    -0.0010842    -0.0028691     0.0000000    -0.0009508
    -0.0037532    -0.0009508     0.0000000    -0.0009508     0.0000000
 l=   3
     0.0000000    -0.0069438     0.0000000     0.0000000     0.0000000    -0.0212415    -0.1069042
    -0.0069438     0.0000000    -0.0103419     0.0000000    -0.0103423    -0.0162984    -0.0069435
     0.0000000    -0.0103419     0.0000000    -0.0701453    -0.0171168    -0.0180670     0.0000000
     0.0000000     0.0000000    -0.0701453     0.0000000    -0.0701481     0.0000000     0.0000000
     0.0000000    -0.0103423    -0.0171168    -0.0701481     0.0000000    -0.0180686     0.0000000
    -0.0212415    -0.0162984    -0.0180670     0.0000000    -0.0180686     0.0000000    -0.0212416
    -0.1069042    -0.0069435     0.0000000     0.0000000     0.0000000    -0.0212416     0.0000000

 Ion:    2  E_soc:     -0.0010809
 l=   1
     0.0000000    -0.0001835    -0.0001734
    -0.0001835     0.0000000    -0.0001835
    -0.0001734    -0.0001835     0.0000000
 l=   2
     0.0000000     0.0000000     0.0000000     0.0000000     0.0000000
     0.0000000     0.0000000     0.0000000     0.0000000     0.0000000
     0.0000000     0.0000000     0.0000000     0.0000000     0.0000000
     0.0000000     0.0000000     0.0000000     0.0000000     0.0000000
     0.0000000     0.0000000     0.0000000     0.0000000     0.0000000
 l=   3
     0.0000000     0.0000000     0.0000000     0.0000000     0.0000000     0.0000000     0.0000000
     0.0000000     0.0000000     0.0000000     0.0000000     0.0000000     0.0000000     0.0000000
     0.0000000     0.0000000     0.0000000     0.0000000     0.0000000     0.0000000     0.0000000
     0.0000000     0.0000000     0.0000000     0.0000000     0.0000000     0.0000000     0.0000000
     0.0000000     0.0000000     0.0000000     0.0000000     0.0000000     0.0000000     0.0000000
     0.0000000     0.0000000     0.0000000     0.0000000     0.0000000     0.0000000     0.0000000
     0.0000000     0.0000000     0.0000000     0.0000000     0.0000000     0.0000000     0.0000000

 Ion:    3  E_soc:     -0.0010809
 l=   1
     0.0000000    -0.0001835    -0.0001734
    -0.0001835     0.0000000    -0.0001835
    -0.0001734    -0.0001835     0.0000000
 l=   2
     0.0000000     0.0000000     0.0000000     0.0000000     0.0000000
     0.0000000     0.0000000     0.0000000     0.0000000     0.0000000
     0.0000000     0.0000000     0.0000000     0.0000000     0.0000000
     0.0000000     0.0000000     0.0000000     0.0000000     0.0000000
     0.0000000     0.0000000     0.0000000     0.0000000     0.0000000
 l=   3
     0.0000000     0.0000000     0.0000000     0.0000000     0.0000000     0.0000000     0.0000000
     0.0000000     0.0000000     0.0000000     0.0000000     0.0000000     0.0000000     0.0000000
     0.0000000     0.0000000     0.0000000     0.0000000     0.0000000     0.0000000     0.0000000
     0.0000000     0.0000000     0.0000000     0.0000000     0.0000000     0.0000000     0.0000000
     0.0000000     0.0000000     0.0000000     0.0000000     0.0000000     0.0000000     0.0000000
     0.0000000     0.0000000     0.0000000     0.0000000     0.0000000     0.0000000     0.0000000
     0.0000000     0.0000000     0.0000000     0.0000000     0.0000000     0.0000000     0.0000000
 


 total charge     
 
# of ion     s       p       d       f       tot
------------------------------------------------
  1        2.146   5.956   0.707   2.839  11.648
  2        1.576   3.480   0.000   0.000   5.056
  3        1.576   3.480   0.000   0.000   5.056
------------------------------------------------
tot        5.298  12.917   0.707   2.839  21.760

 


 magnetization (x)
 
# of ion     s       p       d       f       tot
------------------------------------------------
  1        0.000   0.000   0.000   0.008   0.008
  2       -0.000  -0.000   0.000   0.000  -0.000
  3       -0.000  -0.000   0.000   0.000  -0.000
------------------------------------------------
tot        0.000  -0.000   0.000   0.008   0.008

 


 magnetization (y)
 
# of ion     s       p       d       f       tot
------------------------------------------------
  1        0.000   0.000   0.000   0.004   0.004
  2       -0.000  -0.000   0.000   0.000  -0.000
  3       -0.000  -0.000   0.000   0.000  -0.000
------------------------------------------------
tot        0.000  -0.000   0.000   0.004   0.004

 


 magnetization (z)
 
# of ion     s       p       d       f       tot
------------------------------------------------
  1        0.005   0.002   0.017   1.269   1.292
  2       -0.002  -0.027   0.000   0.000  -0.029
  3       -0.002  -0.027   0.000   0.000  -0.029
------------------------------------------------
tot        0.001  -0.052   0.017   1.269   1.235

 
 BZINTS: Fermi energy:  9.550273; 26.000000 electrons
         Band energy: -94.360345;  BLOECHL correction: -0.003471
 BZINTS: Fermi energy:  9.550273; 26.000000 electrons
         Band energy: -94.360345;  BLOECHL correction: -0.003471
 BZINTS: Fermi energy:  9.550273; 26.000000 electrons
         Band energy: -94.360345;  BLOECHL correction: -0.003471
 BZINTS: Fermi energy:  9.550273; 26.000000 electrons
         Band energy: -94.360345;  BLOECHL correction: -0.003471

 total amount of memory used by VASP on root node   167014. kBytes
========================================================================

   base      :      30000. kBytes
   nonl-proj :      54859. kBytes
   fftplans  :        913. kBytes
   grid      :       3411. kBytes
   one-center:        196. kBytes
   wavefun   :      77635. kBytes
 
  
  
 General timing and accounting informations for this job:
 ========================================================
  
                  Total CPU time used (sec):      637.026
                            User time (sec):      600.262
                          System time (sec):       36.764
                         Elapsed time (sec):      905.553
  
                   Maximum memory used (kb):      348324.
                   Average memory used (kb):           0.
  
                          Minor page faults:        38937
                          Major page faults:           78
                 Voluntary context switches:        33063
