    3    3    1    1
  0.1362399E+02  0.3866460E-09  0.3866460E-09  0.3866460E-09  0.5000000E-15
  1.000000000000000E-004
  CAR 
 LIO                                     
   26  864   40
 
  0.8333333E-01  0.8333333E-01  0.8333333E-01  0.1157407E-02
   1      -34.588079
   2      -33.925037
   3      -15.473382
   4      -15.185192
   5      -10.334729
   6      -10.332484
   7       -8.932634
   8       -8.899474
   9       -7.302496
  10       -7.216674
  11       -6.999367
  12       -6.800604
  13        2.692345
  14        2.694564
  15        2.731156
  16        2.735895
  17        2.817975
  18        2.851691
  19        5.224024
  20        5.271669
  21        5.358720
  22        5.392232
  23        5.471358
  24        5.471625
  25        9.619409
  26        9.619890
  27        9.790783
  28       10.150688
  29       10.263023
  30       10.308974
  31       10.797762
  32       10.932752
  33       10.976576
  34       11.046304
  35       11.224050
  36       11.319136
  37       11.483350
  38       11.515922
  39       12.034251
  40       12.161811
 
 -0.8333333E-01 -0.8333333E-01 -0.8333333E-01  0.1157407E-02
   1      -34.588079
   2      -33.925037
   3      -15.473382
   4      -15.185192
   5      -10.334729
   6      -10.332484
   7       -8.932634
   8       -8.899474
   9       -7.302496
  10       -7.216674
  11       -6.999367
  12       -6.800604
  13        2.692345
  14        2.694564
  15        2.731156
  16        2.735895
  17        2.817975
  18        2.851691
  19        5.224024
  20        5.271669
  21        5.358721
  22        5.392232
  23        5.471358
  24        5.471625
  25        9.619409
  26        9.619890
  27        9.790783
  28       10.150688
  29       10.263023
  30       10.308974
  31       10.797762
  32       10.932752
  33       10.976576
  34       11.046304
  35       11.224050
  36       11.319136
  37       11.483350
  38       11.515922
  39       12.034251
  40       12.161811
 
  0.8333333E-01  0.0000000E+00  0.0000000E+00  0.1157407E-02
   1      -34.588080
   2      -33.925036
   3      -15.470902
   4      -15.188065
   5      -10.338537
   6      -10.326632
   7       -8.932721
   8       -8.899386
   9       -7.380450
  10       -7.127267
  11       -6.971792
  12       -6.841244
  13        2.685811
  14        2.702067
  15        2.728878
  16        2.734096
  17        2.819901
  18        2.852725
  19        5.229935
  20        5.259426
  21        5.376936
  22        5.397619
  23        5.433774
  24        5.491807
  25        9.598813
  26        9.639803
  27        9.797713
  28       10.137410
  29       10.269158
  30       10.307313
  31       10.815394
  32       10.908341
  33       10.980559
  34       11.060504
  35       11.218977
  36       11.330897
  37       11.440723
  38       11.542869
  39       12.034610
  40       12.161726
 
 -0.8333333E-01  0.0000000E+00  0.0000000E+00  0.1157407E-02
   1      -34.588080
   2      -33.925036
   3      -15.470901
   4      -15.188065
   5      -10.338537
   6      -10.326632
   7       -8.932721
   8       -8.899386
   9       -7.380450
  10       -7.127267
  11       -6.971791
  12       -6.841244
  13        2.685811
  14        2.702067
  15        2.728878
  16        2.734096
  17        2.819901
  18        2.852725
  19        5.229935
  20        5.259426
  21        5.376936
  22        5.397619
  23        5.433774
  24        5.491806
  25        9.598813
  26        9.639803
  27        9.797713
  28       10.137410
  29       10.269158
  30       10.307313
  31       10.815394
  32       10.908341
  33       10.980559
  34       11.060504
  35       11.218977
  36       11.330897
  37       11.440723
  38       11.542869
  39       12.034610
  40       12.161726
 
  0.0000000E+00  0.0000000E+00 -0.8333333E-01  0.1157407E-02
   1      -34.588079
   2      -33.925037
   3      -15.473382
   4      -15.185192
   5      -10.334729
   6      -10.332484
   7       -8.932634
   8       -8.899474
   9       -7.302503
  10       -7.216672
  11       -6.999360
  12       -6.800606
  13        2.692342
  14        2.694564
  15        2.731156
  16        2.735894
  17        2.817976
  18        2.851692
  19        5.224023
  20        5.271669
  21        5.358721
  22        5.392232
  23        5.471359
  24        5.471624
  25        9.619414
  26        9.619891
  27        9.790778
  28       10.150688
  29       10.263022
  30       10.308974
  31       10.797764
  32       10.932751
  33       10.976576
  34       11.046304
  35       11.224051
  36       11.319136
  37       11.483350
  38       11.515922
  39       12.034251
  40       12.161811
 
  0.0000000E+00  0.0000000E+00  0.8333333E-01  0.1157407E-02
   1      -34.588079
   2      -33.925037
   3      -15.473382
   4      -15.185192
   5      -10.334729
   6      -10.332484
   7       -8.932634
   8       -8.899474
   9       -7.302503
  10       -7.216672
  11       -6.999360
  12       -6.800606
  13        2.692342
  14        2.694564
  15        2.731156
  16        2.735894
  17        2.817976
  18        2.851692
  19        5.224023
  20        5.271669
  21        5.358721
  22        5.392232
  23        5.471359
  24        5.471624
  25        9.619414
  26        9.619891
  27        9.790778
  28       10.150688
  29       10.263022
  30       10.308974
  31       10.797763
  32       10.932751
  33       10.976576
  34       11.046304
  35       11.224051
  36       11.319136
  37       11.483350
  38       11.515922
  39       12.034251
  40       12.161811
 
  0.0000000E+00  0.8333333E-01  0.0000000E+00  0.1157407E-02
   1      -34.588080
   2      -33.925036
   3      -15.470872
   4      -15.188088
   5      -10.338530
   6      -10.326620
   7       -8.932725
   8       -8.899390
   9       -7.380943
  10       -7.126724
  11       -6.971790
  12       -6.841311
  13        2.685756
  14        2.702045
  15        2.728823
  16        2.734111
  17        2.819925
  18        2.852804
  19        5.230027
  20        5.259274
  21        5.377124
  22        5.397723
  23        5.433439
  24        5.491908
  25        9.598924
  26        9.639646
  27        9.797853
  28       10.137380
  29       10.269136
  30       10.307292
  31       10.815281
  32       10.908579
  33       10.980514
  34       11.060697
  35       11.218989
  36       11.330744
  37       11.440394
  38       11.543033
  39       12.034617
  40       12.161730
 
  0.0000000E+00 -0.8333333E-01  0.0000000E+00  0.1157407E-02
   1      -34.588080
   2      -33.925036
   3      -15.470872
   4      -15.188088
   5      -10.338530
   6      -10.326620
   7       -8.932725
   8       -8.899390
   9       -7.380943
  10       -7.126724
  11       -6.971790
  12       -6.841311
  13        2.685756
  14        2.702045
  15        2.728823
  16        2.734111
  17        2.819925
  18        2.852804
  19        5.230027
  20        5.259274
  21        5.377124
  22        5.397723
  23        5.433439
  24        5.491908
  25        9.598924
  26        9.639646
  27        9.797853
  28       10.137380
  29       10.269136
  30       10.307292
  31       10.815281
  32       10.908579
  33       10.980514
  34       11.060696
  35       11.218989
  36       11.330744
  37       11.440394
  38       11.543033
  39       12.034617
  40       12.161730
 
  0.2500000E+00  0.8333333E-01  0.8333333E-01  0.1157407E-02
   1      -34.564398
   2      -33.899908
   3      -15.627321
   4      -15.355734
   5      -10.639422
   6      -10.599519
   7       -9.177227
   8       -9.146617
   9       -7.371314
  10       -7.046265
  11       -6.616673
  12       -6.370955
  13        2.958542
  14        2.990555
  15        3.027619
  16        3.064272
  17        3.465732
  18        3.511915
  19        4.740117
  20        4.804719
  21        5.168625
  22        5.246400
  23        5.622019
  24        5.701348
  25        9.482666
  26        9.619305
  27        9.708258
  28       10.021412
  29       10.105999
  30       10.234571
  31       10.637814
  32       10.735911
  33       10.856795
  34       10.923706
  35       11.055006
  36       11.164199
  37       11.339220
  38       11.431393
  39       13.133827
  40       13.259165
 
 -0.2500000E+00 -0.8333333E-01 -0.8333333E-01  0.1157407E-02
   1      -34.564398
   2      -33.899908
   3      -15.627321
   4      -15.355734
   5      -10.639422
   6      -10.599520
   7       -9.177226
   8       -9.146617
   9       -7.371314
  10       -7.046264
  11       -6.616673
  12       -6.370955
  13        2.958542
  14        2.990555
  15        3.027619
  16        3.064271
  17        3.465732
  18        3.511915
  19        4.740117
  20        4.804719
  21        5.168625
  22        5.246400
  23        5.622019
  24        5.701348
  25        9.482666
  26        9.619305
  27        9.708258
  28       10.021412
  29       10.105999
  30       10.234571
  31       10.637814
  32       10.735911
  33       10.856795
  34       10.923706
  35       11.055006
  36       11.164200
  37       11.339220
  38       11.431393
  39       13.133827
  40       13.259166
 
  0.8333333E-01  0.2500000E+00  0.8333333E-01  0.1157407E-02
   1      -34.564398
   2      -33.899908
   3      -15.627181
   4      -15.355847
   5      -10.639420
   6      -10.599456
   7       -9.177214
   8       -9.146676
   9       -7.372319
  10       -7.045403
  11       -6.616781
  12       -6.370739
  13        2.958475
  14        2.990505
  15        3.027588
  16        3.064250
  17        3.465770
  18        3.511958
  19        4.740143
  20        4.804694
  21        5.168659
  22        5.246349
  23        5.622000
  24        5.701374
  25        9.482894
  26        9.618812
  27        9.708971
  28       10.021442
  29       10.105706
  30       10.234314
  31       10.637879
  32       10.736815
  33       10.857373
  34       10.923453
  35       11.055025
  36       11.163039
  37       11.338894
  38       11.431634
  39       13.133858
  40       13.259152
 
 -0.8333333E-01 -0.2500000E+00 -0.8333333E-01  0.1157407E-02
   1      -34.564398
   2      -33.899908
   3      -15.627181
   4      -15.355847
   5      -10.639419
   6      -10.599456
   7       -9.177213
   8       -9.146676
   9       -7.372319
  10       -7.045403
  11       -6.616781
  12       -6.370739
  13        2.958475
  14        2.990505
  15        3.027588
  16        3.064250
  17        3.465770
  18        3.511959
  19        4.740143
  20        4.804693
  21        5.168659
  22        5.246349
  23        5.622000
  24        5.701374
  25        9.482894
  26        9.618812
  27        9.708971
  28       10.021442
  29       10.105706
  30       10.234314
  31       10.637879
  32       10.736815
  33       10.857374
  34       10.923453
  35       11.055025
  36       11.163039
  37       11.338894
  38       11.431634
  39       13.133858
  40       13.259152
 
  0.8333333E-01  0.8333333E-01  0.2500000E+00  0.1157407E-02
   1      -34.564390
   2      -33.899915
   3      -15.636505
   4      -15.345034
   5      -10.634518
   6      -10.609994
   7       -9.177787
   8       -9.146334
   9       -7.222218
  10       -7.214799
  11       -6.606972
  12       -6.356883
  13        2.958853
  14        2.992613
  15        3.027618
  16        3.065164
  17        3.463252
  18        3.511726
  19        4.741151
  20        4.803495
  21        5.169907
  22        5.248544
  23        5.617968
  24        5.701804
  25        9.469112
  26        9.631821
  27        9.705404
  28       10.011228
  29       10.145178
  30       10.228372
  31       10.573262
  32       10.727805
  33       10.864477
  34       10.978987
  35       11.016392
  36       11.213138
  37       11.362758
  38       11.388985
  39       13.132423
  40       13.259992
 
 -0.8333333E-01 -0.8333333E-01 -0.2500000E+00  0.1157407E-02
   1      -34.564390
   2      -33.899915
   3      -15.636505
   4      -15.345034
   5      -10.634519
   6      -10.609994
   7       -9.177787
   8       -9.146333
   9       -7.222218
  10       -7.214799
  11       -6.606972
  12       -6.356883
  13        2.958853
  14        2.992613
  15        3.027617
  16        3.065164
  17        3.463253
  18        3.511726
  19        4.741151
  20        4.803495
  21        5.169907
  22        5.248544
  23        5.617968
  24        5.701804
  25        9.469112
  26        9.631821
  27        9.705404
  28       10.011228
  29       10.145178
  30       10.228372
  31       10.573262
  32       10.727805
  33       10.864477
  34       10.978987
  35       11.016392
  36       11.213138
  37       11.362758
  38       11.388985
  39       13.132424
  40       13.259992
 
  0.8333333E-01  0.0000000E+00 -0.1666667E+00  0.1157407E-02
   1      -34.564392
   2      -33.899912
   3      -15.633594
   4      -15.348518
   5      -10.635469
   6      -10.607357
   7       -9.177941
   8       -9.146494
   9       -7.278832
  10       -7.151954
  11       -6.615815
  12       -6.355155
  13        2.957369
  14        2.994828
  15        3.024670
  16        3.065695
  17        3.465670
  18        3.510822
  19        4.739627
  20        4.804685
  21        5.167768
  22        5.247225
  23        5.622716
  24        5.701468
  25        9.499749
  26        9.580286
  27        9.717232
  28       10.038658
  29       10.128737
  30       10.220069
  31       10.597979
  32       10.746635
  33       10.830854
  34       10.959867
  35       11.042899
  36       11.196267
  37       11.332226
  38       11.424614
  39       13.133010
  40       13.259895
 
 -0.8333333E-01  0.0000000E+00  0.1666667E+00  0.1157407E-02
   1      -34.564392
   2      -33.899912
   3      -15.633594
   4      -15.348518
   5      -10.635470
   6      -10.607357
   7       -9.177942
   8       -9.146494
   9       -7.278832
  10       -7.151954
  11       -6.615815
  12       -6.355155
  13        2.957369
  14        2.994828
  15        3.024670
  16        3.065695
  17        3.465670
  18        3.510821
  19        4.739627
  20        4.804685
  21        5.167768
  22        5.247225
  23        5.622716
  24        5.701468
  25        9.499749
  26        9.580286
  27        9.717232
  28       10.038658
  29       10.128737
  30       10.220069
  31       10.597979
  32       10.746635
  33       10.830854
  34       10.959867
  35       11.042899
  36       11.196267
  37       11.332226
  38       11.424614
  39       13.133010
  40       13.259895
 
  0.2500000E+00  0.1666667E+00  0.1666667E+00  0.1157407E-02
   1      -34.564392
   2      -33.899912
   3      -15.633595
   4      -15.348518
   5      -10.635467
   6      -10.607359
   7       -9.177941
   8       -9.146494
   9       -7.278818
  10       -7.151959
  11       -6.615829
  12       -6.355150
  13        2.957371
  14        2.994829
  15        3.024671
  16        3.065695
  17        3.465668
  18        3.510821
  19        4.739627
  20        4.804684
  21        5.167769
  22        5.247226
  23        5.622717
  24        5.701467
  25        9.499732
  26        9.580277
  27        9.717253
  28       10.038664
  29       10.128739
  30       10.220070
  31       10.597971
  32       10.746632
  33       10.830855
  34       10.959869
  35       11.042899
  36       11.196268
  37       11.332230
  38       11.424613
  39       13.133009
  40       13.259895
 
 -0.2500000E+00 -0.1666667E+00 -0.1666667E+00  0.1157407E-02
   1      -34.564392
   2      -33.899912
   3      -15.633595
   4      -15.348518
   5      -10.635467
   6      -10.607359
   7       -9.177941
   8       -9.146494
   9       -7.278818
  10       -7.151959
  11       -6.615829
  12       -6.355150
  13        2.957371
  14        2.994829
  15        3.024671
  16        3.065695
  17        3.465668
  18        3.510821
  19        4.739627
  20        4.804684
  21        5.167769
  22        5.247226
  23        5.622717
  24        5.701467
  25        9.499732
  26        9.580277
  27        9.717253
  28       10.038664
  29       10.128739
  30       10.220070
  31       10.597971
  32       10.746632
  33       10.830855
  34       10.959869
  35       11.042899
  36       11.196268
  37       11.332230
  38       11.424613
  39       13.133009
  40       13.259895
 
  0.8333333E-01 -0.1666667E+00  0.0000000E+00  0.1157407E-02
   1      -34.564406
   2      -33.899904
   3      -15.618791
   4      -15.365305
   5      -10.640110
   6      -10.592903
   7       -9.167779
   8       -9.159198
   9       -7.426052
  10       -6.979385
  11       -6.603015
  12       -6.398287
  13        2.954715
  14        2.995562
  15        3.024471
  16        3.065101
  17        3.465957
  18        3.512263
  19        4.742451
  20        4.804254
  21        5.176758
  22        5.239387
  23        5.614450
  24        5.704934
  25        9.467674
  26        9.618070
  27        9.761823
  28        9.976197
  29       10.135103
  30       10.185696
  31       10.663220
  32       10.804297
  33       10.831911
  34       10.909788
  35       11.049439
  36       11.163495
  37       11.276875
  38       11.473927
  39       13.135042
  40       13.257598
 
 -0.8333333E-01  0.1666667E+00  0.0000000E+00  0.1157407E-02
   1      -34.564406
   2      -33.899904
   3      -15.618791
   4      -15.365305
   5      -10.640110
   6      -10.592903
   7       -9.167779
   8       -9.159198
   9       -7.426052
  10       -6.979385
  11       -6.603015
  12       -6.398287
  13        2.954715
  14        2.995562
  15        3.024471
  16        3.065101
  17        3.465957
  18        3.512263
  19        4.742451
  20        4.804254
  21        5.176758
  22        5.239387
  23        5.614449
  24        5.704934
  25        9.467674
  26        9.618070
  27        9.761823
  28        9.976197
  29       10.135103
  30       10.185696
  31       10.663220
  32       10.804297
  33       10.831911
  34       10.909788
  35       11.049439
  36       11.163495
  37       11.276875
  38       11.473927
  39       13.135042
  40       13.257598
 
  0.0000000E+00  0.1666667E+00 -0.8333333E-01  0.1157407E-02
   1      -34.564398
   2      -33.899908
   3      -15.627180
   4      -15.355846
   5      -10.639421
   6      -10.599455
   7       -9.177214
   8       -9.146676
   9       -7.372319
  10       -7.045406
  11       -6.616778
  12       -6.370739
  13        2.958473
  14        2.990505
  15        3.027588
  16        3.064250
  17        3.465770
  18        3.511959
  19        4.740143
  20        4.804694
  21        5.168658
  22        5.246348
  23        5.622001
  24        5.701374
  25        9.482912
  26        9.618794
  27        9.708970
  28       10.021440
  29       10.105709
  30       10.234312
  31       10.637882
  32       10.736820
  33       10.857369
  34       10.923446
  35       11.055028
  36       11.163040
  37       11.338897
  38       11.431630
  39       13.133859
  40       13.259153
 
  0.0000000E+00 -0.1666667E+00  0.8333333E-01  0.1157407E-02
   1      -34.564398
   2      -33.899908
   3      -15.627180
   4      -15.355846
   5      -10.639421
   6      -10.599455
   7       -9.177214
   8       -9.146676
   9       -7.372319
  10       -7.045406
  11       -6.616778
  12       -6.370738
  13        2.958473
  14        2.990505
  15        3.027588
  16        3.064250
  17        3.465770
  18        3.511959
  19        4.740143
  20        4.804694
  21        5.168658
  22        5.246348
  23        5.622001
  24        5.701374
  25        9.482912
  26        9.618794
  27        9.708970
  28       10.021441
  29       10.105709
  30       10.234312
  31       10.637882
  32       10.736820
  33       10.857369
  34       10.923446
  35       11.055028
  36       11.163040
  37       11.338897
  38       11.431630
  39       13.133859
  40       13.259152
 
  0.1666667E+00  0.0000000E+00 -0.8333333E-01  0.1157407E-02
   1      -34.564398
   2      -33.899908
   3      -15.627321
   4      -15.355735
   5      -10.639425
   6      -10.599517
   7       -9.177226
   8       -9.146618
   9       -7.371320
  10       -7.046260
  11       -6.616669
  12       -6.370957
  13        2.958540
  14        2.990554
  15        3.027619
  16        3.064272
  17        3.465732
  18        3.511916
  19        4.740116
  20        4.804719
  21        5.168624
  22        5.246400
  23        5.622019
  24        5.701349
  25        9.482680
  26        9.619289
  27        9.708264
  28       10.021406
  29       10.105999
  30       10.234570
  31       10.637818
  32       10.735914
  33       10.856793
  34       10.923705
  35       11.055005
  36       11.164200
  37       11.339217
  38       11.431394
  39       13.133827
  40       13.259165
 
 -0.1666667E+00  0.0000000E+00  0.8333333E-01  0.1157407E-02
   1      -34.564398
   2      -33.899908
   3      -15.627321
   4      -15.355735
   5      -10.639425
   6      -10.599517
   7       -9.177227
   8       -9.146618
   9       -7.371320
  10       -7.046260
  11       -6.616669
  12       -6.370957
  13        2.958540
  14        2.990554
  15        3.027619
  16        3.064272
  17        3.465732
  18        3.511916
  19        4.740116
  20        4.804719
  21        5.168624
  22        5.246400
  23        5.622019
  24        5.701349
  25        9.482680
  26        9.619289
  27        9.708264
  28       10.021406
  29       10.105999
  30       10.234570
  31       10.637818
  32       10.735914
  33       10.856793
  34       10.923705
  35       11.055005
  36       11.164200
  37       11.339217
  38       11.431394
  39       13.133827
  40       13.259165
 
 -0.1666667E+00 -0.1666667E+00 -0.2500000E+00  0.1157407E-02
   1      -34.564390
   2      -33.899915
   3      -15.636505
   4      -15.345034
   5      -10.634519
   6      -10.609993
   7       -9.177787
   8       -9.146333
   9       -7.222221
  10       -7.214789
  11       -6.606981
  12       -6.356880
  13        2.958853
  14        2.992613
  15        3.027619
  16        3.065164
  17        3.463251
  18        3.511726
  19        4.741150
  20        4.803494
  21        5.169907
  22        5.248543
  23        5.617968
  24        5.701804
  25        9.469110
  26        9.631786
  27        9.705439
  28       10.011229
  29       10.145178
  30       10.228371
  31       10.573261
  32       10.727804
  33       10.864479
  34       10.978986
  35       11.016390
  36       11.213143
  37       11.362758
  38       11.388983
  39       13.132423
  40       13.259992
 
  0.1666667E+00  0.1666667E+00  0.2500000E+00  0.1157407E-02
   1      -34.564390
   2      -33.899915
   3      -15.636505
   4      -15.345034
   5      -10.634518
   6      -10.609994
   7       -9.177787
   8       -9.146334
   9       -7.222221
  10       -7.214789
  11       -6.606981
  12       -6.356880
  13        2.958853
  14        2.992613
  15        3.027619
  16        3.065164
  17        3.463251
  18        3.511726
  19        4.741150
  20        4.803494
  21        5.169907
  22        5.248543
  23        5.617968
  24        5.701804
  25        9.469110
  26        9.631786
  27        9.705439
  28       10.011229
  29       10.145178
  30       10.228372
  31       10.573261
  32       10.727804
  33       10.864479
  34       10.978986
  35       11.016390
  36       11.213143
  37       11.362757
  38       11.388983
  39       13.132423
  40       13.259992
 
  0.1666667E+00  0.2500000E+00  0.1666667E+00  0.1157407E-02
   1      -34.564392
   2      -33.899913
   3      -15.633533
   4      -15.348567
   5      -10.635510
   6      -10.607279
   7       -9.177941
   8       -9.146541
   9       -7.279806
  10       -7.150979
  11       -6.615916
  12       -6.355054
  13        2.957307
  14        2.994824
  15        3.024659
  16        3.065724
  17        3.465684
  18        3.510819
  19        4.739636
  20        4.804661
  21        5.167790
  22        5.247200
  23        5.622718
  24        5.701482
  25        9.500036
  26        9.579810
  27        9.717571
  28       10.038739
  29       10.128901
  30       10.219617
  31       10.598008
  32       10.747150
  33       10.831042
  34       10.959650
  35       11.042642
  36       11.196326
  37       11.331867
  38       11.424705
  39       13.133027
  40       13.259892
 
 -0.1666667E+00 -0.2500000E+00 -0.1666667E+00  0.1157407E-02
   1      -34.564392
   2      -33.899913
   3      -15.633533
   4      -15.348567
   5      -10.635510
   6      -10.607279
   7       -9.177941
   8       -9.146542
   9       -7.279806
  10       -7.150979
  11       -6.615915
  12       -6.355054
  13        2.957307
  14        2.994824
  15        3.024659
  16        3.065724
  17        3.465684
  18        3.510819
  19        4.739636
  20        4.804661
  21        5.167790
  22        5.247200
  23        5.622718
  24        5.701482
  25        9.500036
  26        9.579810
  27        9.717571
  28       10.038739
  29       10.128901
  30       10.219617
  31       10.598009
  32       10.747150
  33       10.831042
  34       10.959650
  35       11.042642
  36       11.196326
  37       11.331867
  38       11.424705
  39       13.133028
  40       13.259892
 
  0.0000000E+00  0.8333333E-01 -0.1666667E+00  0.1157407E-02
   1      -34.564392
   2      -33.899913
   3      -15.633532
   4      -15.348567
   5      -10.635511
   6      -10.607279
   7       -9.177942
   8       -9.146541
   9       -7.279803
  10       -7.150992
  11       -6.615901
  12       -6.355058
  13        2.957305
  14        2.994824
  15        3.024657
  16        3.065724
  17        3.465686
  18        3.510820
  19        4.739636
  20        4.804662
  21        5.167788
  22        5.247200
  23        5.622718
  24        5.701481
  25        9.500060
  26        9.579814
  27        9.717545
  28       10.038738
  29       10.128901
  30       10.219616
  31       10.598015
  32       10.747152
  33       10.831039
  34       10.959648
  35       11.042640
  36       11.196327
  37       11.331870
  38       11.424700
  39       13.133028
  40       13.259892
 
  0.0000000E+00 -0.8333333E-01  0.1666667E+00  0.1157407E-02
   1      -34.564392
   2      -33.899913
   3      -15.633532
   4      -15.348567
   5      -10.635511
   6      -10.607279
   7       -9.177942
   8       -9.146541
   9       -7.279803
  10       -7.150992
  11       -6.615901
  12       -6.355058
  13        2.957305
  14        2.994824
  15        3.024657
  16        3.065724
  17        3.465686
  18        3.510820
  19        4.739636
  20        4.804662
  21        5.167788
  22        5.247200
  23        5.622718
  24        5.701481
  25        9.500060
  26        9.579814
  27        9.717545
  28       10.038738
  29       10.128901
  30       10.219616
  31       10.598015
  32       10.747152
  33       10.831039
  34       10.959648
  35       11.042640
  36       11.196327
  37       11.331870
  38       11.424700
  39       13.133028
  40       13.259892
 
 -0.1666667E+00  0.8333333E-01  0.0000000E+00  0.1157407E-02
   1      -34.564405
   2      -33.899904
   3      -15.618872
   4      -15.365240
   5      -10.640170
   6      -10.592871
   7       -9.167793
   8       -9.159187
   9       -7.425622
  10       -6.979600
  11       -6.603126
  12       -6.398353
  13        2.954715
  14        2.995608
  15        3.024490
  16        3.065151
  17        3.465940
  18        3.512213
  19        4.742436
  20        4.804252
  21        5.176749
  22        5.239394
  23        5.614451
  24        5.704963
  25        9.467638
  26        9.618138
  27        9.761327
  28        9.976453
  29       10.135867
  30       10.185144
  31       10.662886
  32       10.805226
  33       10.830994
  34       10.908969
  35       11.049663
  36       11.164712
  37       11.276596
  38       11.473892
  39       13.135028
  40       13.257612
 
  0.1666667E+00 -0.8333333E-01  0.0000000E+00  0.1157407E-02
   1      -34.564405
   2      -33.899904
   3      -15.618872
   4      -15.365240
   5      -10.640170
   6      -10.592871
   7       -9.167793
   8       -9.159187
   9       -7.425622
  10       -6.979600
  11       -6.603126
  12       -6.398353
  13        2.954715
  14        2.995608
  15        3.024490
  16        3.065151
  17        3.465940
  18        3.512213
  19        4.742436
  20        4.804252
  21        5.176749
  22        5.239394
  23        5.614451
  24        5.704963
  25        9.467638
  26        9.618138
  27        9.761327
  28        9.976453
  29       10.135867
  30       10.185144
  31       10.662886
  32       10.805226
  33       10.830994
  34       10.908969
  35       11.049663
  36       11.164712
  37       11.276596
  38       11.473892
  39       13.135028
  40       13.257612
 
  0.4166667E+00  0.8333333E-01  0.8333333E-01  0.1157407E-02
   1      -34.527694
   2      -33.860932
   3      -15.855005
   4      -15.611586
   5      -10.958077
   6      -10.881460
   7       -9.612580
   8       -9.576575
   9       -7.470867
  10       -7.108864
  11       -5.807200
  12       -5.599180
  13        3.389353
  14        3.416185
  15        3.455077
  16        3.476201
  17        4.204763
  18        4.248734
  19        4.486095
  20        4.525153
  21        5.166644
  22        5.235591
  23        5.690426
  24        5.762709
  25        9.193858
  26        9.327912
  27        9.657334
  28        9.747074
  29        9.936089
  30       10.145094
  31       10.307321
  32       10.367618
  33       10.772271
  34       10.796103
  35       10.974299
  36       11.128557
  37       11.419846
  38       11.544060
  39       14.035023
  40       14.264374
 