       N       E                     dE             d eps       ncg     rms          rms(c)

 E_p =  0.00000E+00  lambda =  0.500E+02
<lVp>=  0.00000E+00
 DBL =  0.00000E+00
 ion        MW_int                 M_int
  1  0.000  0.000  0.000    0.000  0.000  0.000
  2  0.000  0.000  0.000    0.000  0.000  0.000
  3  0.000  0.000  0.000    0.000  0.000  0.000
DAV:   1     0.261266613994E+03    0.26127E+03   -0.10517E+04 69120   0.128E+03

 E_p =  0.00000E+00  lambda =  0.500E+02
<lVp>=  0.00000E+00
 DBL =  0.00000E+00
 ion        MW_int                 M_int
  1  0.000  0.000  0.000    0.000  0.000  0.000
  2  0.000  0.000  0.000    0.000  0.000  0.000
  3  0.000  0.000  0.000    0.000  0.000  0.000
DAV:   2    -0.146495275069E+01   -0.26273E+03   -0.22507E+03 78040   0.336E+02

 E_p =  0.00000E+00  lambda =  0.500E+02
<lVp>=  0.00000E+00
 DBL =  0.00000E+00
 ion        MW_int                 M_int
  1  0.000  0.000  0.000    0.000  0.000  0.000
  2  0.000  0.000  0.000    0.000  0.000  0.000
  3  0.000  0.000  0.000    0.000  0.000  0.000
DAV:   3    -0.356970392679E+02   -0.34232E+02   -0.32732E+02 92790   0.139E+02

 E_p =  0.00000E+00  lambda =  0.500E+02
<lVp>=  0.00000E+00
 DBL =  0.00000E+00
 ion        MW_int                 M_int
  1  0.000  0.000  0.000    0.000  0.000  0.000
  2  0.000  0.000  0.000    0.000  0.000  0.000
  3  0.000  0.000  0.000    0.000  0.000  0.000
DAV:   4    -0.373189893133E+02   -0.16220E+01   -0.16163E+01107300   0.265E+01

 E_p =  0.00000E+00  lambda =  0.500E+02
<lVp>=  0.00000E+00
 DBL =  0.00000E+00
 ion        MW_int                 M_int
  1  0.000  0.000  0.000    0.000  0.000  0.000
  2  0.000  0.000  0.000    0.000  0.000  0.000
  3  0.000  0.000  0.000    0.000  0.000  0.000
DAV:   5    -0.373858686112E+02   -0.66879E-01   -0.66862E-01104880   0.439E+00    0.110E+01

 E_p =  0.00000E+00  lambda =  0.500E+02
<lVp>=  0.00000E+00
 DBL =  0.00000E+00
 ion        MW_int                 M_int
  1  0.000  0.000  0.000    0.000  0.000  0.000
  2  0.000  0.000  0.000    0.000  0.000  0.000
  3  0.000  0.000  0.000    0.000  0.000  0.000
DAV:   6    -0.351767337424E+02    0.22091E+01   -0.19371E+01 96530   0.299E+01    0.694E+00

 E_p =  0.00000E+00  lambda =  0.500E+02
<lVp>=  0.00000E+00
 DBL =  0.00000E+00
 ion        MW_int                 M_int
  1  0.000  0.000  0.000    0.000  0.000  0.000
  2  0.000  0.000  0.000    0.000  0.000  0.000
  3  0.000  0.000  0.000    0.000  0.000  0.000
DAV:   7    -0.346135406112E+02    0.56319E+00   -0.34795E+00 97190   0.243E+01    0.236E+00

 E_p =  0.00000E+00  lambda =  0.500E+02
<lVp>=  0.00000E+00
 DBL =  0.00000E+00
 ion        MW_int                 M_int
  1  0.000  0.000  0.000    0.000  0.000  0.000
  2  0.000  0.000  0.000    0.000  0.000  0.000
  3  0.000  0.000  0.000    0.000  0.000  0.000
DAV:   8    -0.345544302585E+02    0.59110E-01   -0.28609E-01 91030   0.453E+00    0.120E+00

 E_p =  0.00000E+00  lambda =  0.500E+02
<lVp>=  0.00000E+00
 DBL =  0.00000E+00
 ion        MW_int                 M_int
  1  0.000  0.000  0.000    0.000  0.000  0.000
  2  0.000  0.000  0.000    0.000  0.000  0.000
  3  0.000  0.000  0.000    0.000  0.000  0.000
DAV:   9    -0.345444432915E+02    0.99870E-02   -0.12028E-01108800   0.227E+00    0.600E-01

 E_p =  0.00000E+00  lambda =  0.500E+02
<lVp>=  0.00000E+00
 DBL =  0.00000E+00
 ion        MW_int                 M_int
  1  0.000  0.000  0.000    0.000  0.000  0.000
  2  0.000  0.000  0.000    0.000  0.000  0.000
  3  0.000  0.000  0.000    0.000  0.000  0.000
DAV:  10    -0.345412596218E+02    0.31837E-02   -0.15006E-02101040   0.109E+00    0.222E-01

 E_p =  0.00000E+00  lambda =  0.500E+02
<lVp>=  0.00000E+00
 DBL =  0.00000E+00
 ion        MW_int                 M_int
  1  0.000  0.000  0.000    0.000  0.000  0.000
  2  0.000  0.000  0.000    0.000  0.000  0.000
  3  0.000  0.000  0.000    0.000  0.000  0.000
DAV:  11    -0.345411746201E+02    0.85002E-04   -0.51709E-03 98700   0.482E-01    0.112E-01

 E_p =  0.00000E+00  lambda =  0.500E+02
<lVp>=  0.00000E+00
 DBL =  0.00000E+00
 ion        MW_int                 M_int
  1  0.000  0.000  0.000    0.000  0.000  0.000
  2  0.000  0.000  0.000    0.000  0.000  0.000
  3  0.000  0.000  0.000    0.000  0.000  0.000
DAV:  12    -0.345410239746E+02    0.15065E-03   -0.74667E-04 98040   0.225E-01    0.323E-02

 E_p =  0.00000E+00  lambda =  0.500E+02
<lVp>=  0.00000E+00
 DBL =  0.00000E+00
 ion        MW_int                 M_int
  1  0.000  0.000  0.000    0.000  0.000  0.000
  2  0.000  0.000  0.000    0.000  0.000  0.000
  3  0.000  0.000  0.000    0.000  0.000  0.000
DAV:  13    -0.345410308237E+02   -0.68491E-05   -0.67705E-05 82280   0.613E-02
   1 F= -.34541031E+02 E0= -.34541031E+02  d E =0.000000E+00  mag=    -0.0046     0.0000     1.3599

 E_p =  0.00000E+00  lambda =  0.500E+02
 ion             lambda*MW_perp
  1   0.00000E+00   0.00000E+00   0.00000E+00
