    5    5   20    1
  0.2662000E+03  0.1100000E-08  0.1100000E-08  0.1100000E-08  0.5000000E-15
  1.000000000000000E-004
  CAR 
 LIO                                     
   40    1   64
 
  0.0000000E+00  0.0000000E+00  0.0000000E+00  0.1000000E+01
   1       -8.329591
   2       -7.501121
   3       -7.289788
   4       -6.928855
   5       -6.856691
   6       -6.842847
   7       -6.591298
   8       -6.372909
   9       -6.341649
  10       -6.235017
  11       -6.006738
  12       -5.922917
  13       -5.915466
  14       -5.633337
  15       -5.596482
  16       -5.400457
  17       -5.330942
  18       -5.302591
  19       -5.097439
  20       -5.029920
  21       -4.998499
  22       -4.997949
  23       -4.991101
  24       -4.974957
  25       -4.910698
  26       -4.885463
  27       -4.802331
  28       -4.562879
  29       -4.448431
  30       -4.356193
  31       -4.320609
  32       -4.175444
  33       -4.063309
  34       -4.022531
  35       -3.986793
  36       -3.894814
  37       -3.631032
  38       -3.596439
  39       -3.583924
  40       -3.456820
  41       -3.265572
  42       -3.013608
  43       -2.794617
  44       -2.632347
  45       -2.390254
  46       -2.202838
  47       -2.174452
  48       -2.077024
  49       -1.986117
  50       -1.960653
  51       -1.925218
  52       -1.866969
  53       -1.823058
  54       -1.818452
  55       -1.744341
  56       -1.641271
  57       -1.624882
  58       -1.529803
  59       -1.514259
  60       -1.218886
  61       -1.000664
  62       -0.898556
  63       -0.571447
  64       -0.517051
