 running on   16 total cores
 distrk:  each k-point on   16 cores,    1 groups
 distr:  one band on    8 cores,    2 groups
 using from now: INCAR     
 vasp.5.3.2 13Sep12 (build Sep  9 2014 11:37:56) complex                        
  
 POSCAR found type information on POSCAR  Fe
 POSCAR found :  1 types and       5 ions
 LDA part: xc-table for Pade appr. of Perdew
 POSCAR, INCAR and KPOINTS ok, starting setup
 FFT: planning ...
 WAVECAR not read
 entering main loop
       N       E                     dE             d eps       ncg     rms          rms(c)
DAV:   1     0.199082923585E+03    0.19908E+03   -0.77360E+03   128   0.590E+02
DAV:   2     0.164743937574E+02   -0.18261E+03   -0.16056E+03   128   0.197E+02
DAV:   3    -0.258933743363E+02   -0.42368E+02   -0.37746E+02   176   0.884E+01
DAV:   4    -0.308626380635E+02   -0.49693E+01   -0.46574E+01   192   0.461E+01
DAV:   5    -0.310486512034E+02   -0.18601E+00   -0.17910E+00   208   0.886E+00    0.214E+01
DAV:   6    -0.340792585329E+02   -0.30306E+01   -0.28490E+01   176   0.812E+01    0.377E+01
DAV:   7    -0.311652032606E+02    0.29141E+01   -0.20181E+01   192   0.912E+01    0.248E+01
DAV:   8    -0.287742265865E+02    0.23910E+01   -0.92144E+00   192   0.441E+01    0.100E+01
DAV:   9    -0.286026083244E+02    0.17162E+00   -0.22910E+00   152   0.133E+01    0.610E+00
DAV:  10    -0.284456718393E+02    0.15694E+00   -0.77356E-01   160   0.634E+00    0.583E+00
DAV:  11    -0.286561513415E+02   -0.21048E+00   -0.39666E-01   144   0.686E+00    0.485E+00
DAV:  12    -0.286820576336E+02   -0.25906E-01   -0.11621E-01   176   0.656E+00    0.422E+00
DAV:  13    -0.286619548143E+02    0.20103E-01   -0.41198E-02   184   0.527E+00    0.260E+00
DAV:  14    -0.286923458314E+02   -0.30391E-01   -0.94277E-02   160   0.329E+00    0.109E+00
DAV:  15    -0.287212756771E+02   -0.28930E-01   -0.44715E-02   160   0.278E+00    0.175E+00
DAV:  16    -0.286801406794E+02    0.41135E-01   -0.94203E-03   128   0.799E-01    0.167E+00
DAV:  17    -0.286685048973E+02    0.11636E-01   -0.45377E-02   128   0.110E+00    0.134E+00
DAV:  18    -0.286827170538E+02   -0.14212E-01   -0.45760E-03   128   0.540E-01    0.138E+00
DAV:  19    -0.286825762280E+02    0.14083E-03   -0.50756E-03   144   0.339E-01    0.134E+00
DAV:  20    -0.286829690546E+02   -0.39283E-03   -0.21657E-02   128   0.678E-01    0.131E+00
DAV:  21    -0.286807863021E+02    0.21828E-02   -0.85954E-02   128   0.137E+00    0.101E+00
DAV:  22    -0.287203001882E+02   -0.39514E-01   -0.84293E-02   128   0.162E+00    0.720E-01
DAV:  23    -0.287283768340E+02   -0.80766E-02   -0.79152E-02   128   0.160E+00    0.106E+00
DAV:  24    -0.287299315083E+02   -0.15547E-02   -0.44460E-02   128   0.115E+00    0.136E+00
DAV:  25    -0.287362919885E+02   -0.63605E-02   -0.52804E-02   128   0.116E+00    0.116E+00
DAV:  26    -0.287389088021E+02   -0.26168E-02   -0.46042E-02   128   0.107E+00    0.745E-01
DAV:  27    -0.287447691888E+02   -0.58604E-02   -0.56269E-02   128   0.122E+00    0.369E-01
DAV:  28    -0.287491555911E+02   -0.43864E-02   -0.37157E-02   128   0.969E-01    0.194E-01
DAV:  29    -0.287508850261E+02   -0.17294E-02   -0.38045E-02   128   0.967E-01    0.217E-01
DAV:  30    -0.287495575104E+02    0.13275E-02   -0.22037E-02   128   0.760E-01    0.270E-01
DAV:  31    -0.287480529891E+02    0.15045E-02   -0.13702E-02   128   0.595E-01    0.264E-01
DAV:  32    -0.287478242309E+02    0.22876E-03   -0.12486E-02   128   0.534E-01    0.262E-01
DAV:  33    -0.287479625110E+02   -0.13828E-03   -0.55469E-03   128   0.394E-01    0.214E-01
DAV:  34    -0.287487854950E+02   -0.82298E-03   -0.43983E-03   128   0.335E-01    0.198E-01
DAV:  35    -0.287493446903E+02   -0.55920E-03   -0.43129E-04   128   0.141E-01    0.192E-01
DAV:  36    -0.287495893397E+02   -0.24465E-03   -0.12861E-04   144   0.616E-02    0.190E-01
DAV:  37    -0.287496351184E+02   -0.45779E-04   -0.13876E-04   144   0.531E-02    0.190E-01
DAV:  38    -0.287495139708E+02    0.12115E-03   -0.19851E-03   128   0.196E-01    0.197E-01
DAV:  39    -0.287495251073E+02   -0.11136E-04   -0.61806E-03   128   0.356E-01    0.199E-01
DAV:  40    -0.287493908956E+02    0.13421E-03   -0.10696E-02   128   0.485E-01    0.212E-01
DAV:  41    -0.287497673580E+02   -0.37646E-03   -0.10935E-02   128   0.491E-01    0.220E-01
DAV:  42    -0.287501933481E+02   -0.42599E-03   -0.16346E-02   128   0.615E-01    0.247E-01
DAV:  43    -0.287499848436E+02    0.20850E-03   -0.17088E-02   128   0.627E-01    0.237E-01
DAV:  44    -0.287500338563E+02   -0.49013E-04   -0.16911E-02   128   0.623E-01    0.213E-01
DAV:  45    -0.287501815548E+02   -0.14770E-03   -0.16334E-02   128   0.649E-01    0.201E-01
DAV:  46    -0.287503152270E+02   -0.13367E-03   -0.10131E-02   128   0.508E-01    0.133E-01
DAV:  47    -0.287511081978E+02   -0.79297E-03   -0.15854E-02   128   0.595E-01    0.144E-01
DAV:  48    -0.287516701118E+02   -0.56191E-03   -0.11223E-02   128   0.511E-01    0.137E-01
DAV:  49    -0.287522987071E+02   -0.62860E-03   -0.10903E-02   128   0.510E-01    0.144E-01
DAV:  50    -0.287525530529E+02   -0.25435E-03   -0.52082E-03   128   0.368E-01    0.136E-01
DAV:  51    -0.287532649526E+02   -0.71190E-03   -0.56872E-03   128   0.372E-01    0.145E-01
DAV:  52    -0.287535544798E+02   -0.28953E-03   -0.47554E-03   128   0.349E-01    0.145E-01
DAV:  53    -0.287537239808E+02   -0.16950E-03   -0.49354E-03   128   0.344E-01    0.152E-01
DAV:  54    -0.287538739069E+02   -0.14993E-03   -0.29900E-03   128   0.273E-01    0.157E-01
DAV:  55    -0.287539977695E+02   -0.12386E-03   -0.10022E-03   128   0.179E-01    0.163E-01
DAV:  56    -0.287540910867E+02   -0.93317E-04   -0.90862E-04   128   0.156E-01    0.167E-01
DAV:  57    -0.287541201770E+02   -0.29090E-04   -0.26429E-04   128   0.982E-02    0.164E-01
DAV:  58    -0.287540739054E+02    0.46272E-04   -0.61550E-04   128   0.123E-01    0.156E-01
DAV:  59    -0.287539320198E+02    0.14189E-03   -0.94207E-04   128   0.142E-01    0.152E-01
DAV:  60    -0.287538051121E+02    0.12691E-03   -0.19361E-03   128   0.215E-01
   1 F= -.28753805E+02 E0= -.28751132E+02  d E =-.287538E+02  mag=     0.0022     0.0022    17.2889
 curvature:   0.00 expect dE= 0.000E+00 dE for cont linesearch  0.000E+00
 trial: gam= 0.00000 g(F)=  0.669E-01 g(S)=  0.000E+00 ort = 0.000E+00 (trialstep = 0.100E+01)
 search vector abs. value=  0.669E-01
 bond charge predicted
       N       E                     dE             d eps       ncg     rms          rms(c)
DAV:   1    -0.286757011863E+02    0.78231E-01   -0.12843E+01   128   0.173E+01    0.329E+00
DAV:   2    -0.290622179886E+02   -0.38652E+00   -0.65133E-01   168   0.902E+00    0.141E+01
DAV:   3    -0.287425173185E+02    0.31970E+00   -0.52653E-01   192   0.164E+01    0.458E+00
DAV:   4    -0.287819959302E+02   -0.39479E-01   -0.23427E-01   176   0.896E+00    0.210E+00
DAV:   5    -0.287737106785E+02    0.82853E-02   -0.10091E-01   128   0.234E+00    0.175E+00
DAV:   6    -0.287706790705E+02    0.30316E-02   -0.11556E-01   128   0.185E+00    0.137E+00
DAV:   7    -0.287680006929E+02    0.26784E-02   -0.53581E-02   160   0.175E+00    0.623E-01
DAV:   8    -0.287702171945E+02   -0.22165E-02   -0.33822E-02   128   0.116E+00    0.845E-01
DAV:   9    -0.287583977581E+02    0.11819E-01   -0.69107E-03   128   0.561E-01    0.884E-01
DAV:  10    -0.287512666513E+02    0.71311E-02   -0.13898E-02   128   0.614E-01    0.102E+00
DAV:  11    -0.287497804697E+02    0.14862E-02   -0.24833E-03   144   0.313E-01    0.102E+00
DAV:  12    -0.287500233488E+02   -0.24288E-03   -0.45286E-03   128   0.308E-01    0.101E+00
DAV:  13    -0.287497566943E+02    0.26665E-03   -0.10976E-03   128   0.191E-01    0.102E+00
DAV:  14    -0.287500263868E+02   -0.26969E-03   -0.38952E-04   128   0.110E-01    0.102E+00
DAV:  15    -0.287558517023E+02   -0.58253E-02   -0.16727E-02   128   0.613E-01    0.975E-01
DAV:  16    -0.287652348264E+02   -0.93831E-02   -0.28978E-02   128   0.867E-01    0.843E-01
DAV:  17    -0.287756965553E+02   -0.10462E-01   -0.62816E-02   128   0.132E+00    0.687E-01
DAV:  18    -0.287815324263E+02   -0.58359E-02   -0.72747E-02   128   0.139E+00    0.519E-01
DAV:  19    -0.287852312693E+02   -0.36988E-02   -0.69495E-02   128   0.130E+00    0.402E-01
DAV:  20    -0.287858491021E+02   -0.61783E-03   -0.24872E-02   128   0.884E-01    0.324E-01
DAV:  21    -0.287859618188E+02   -0.11272E-03   -0.18151E-02   128   0.711E-01    0.347E-01
DAV:  22    -0.287857504726E+02    0.21135E-03   -0.85909E-04   152   0.255E-01    0.350E-01
DAV:  23    -0.287856855274E+02    0.64945E-04   -0.80876E-05   160   0.444E-02    0.350E-01
DAV:  24    -0.287858700197E+02   -0.18449E-03   -0.60496E-03   128   0.346E-01    0.355E-01
DAV:  25    -0.287861749457E+02   -0.30493E-03   -0.20889E-02   128   0.665E-01    0.404E-01
DAV:  26    -0.287869355614E+02   -0.76062E-03   -0.27012E-02   128   0.796E-01    0.474E-01
DAV:  27    -0.287873912945E+02   -0.45573E-03   -0.21942E-02   128   0.751E-01    0.537E-01
DAV:  28    -0.287876169698E+02   -0.22568E-03   -0.18251E-02   128   0.670E-01    0.575E-01
DAV:  29    -0.287887415786E+02   -0.11246E-02   -0.26882E-02   128   0.830E-01    0.590E-01
DAV:  30    -0.287890018583E+02   -0.26028E-03   -0.20013E-02   128   0.756E-01    0.570E-01
DAV:  31    -0.287891200772E+02   -0.11822E-03   -0.10820E-02   128   0.567E-01    0.526E-01
DAV:  32    -0.287898703460E+02   -0.75027E-03   -0.79630E-03   128   0.456E-01    0.493E-01
DAV:  33    -0.287898430684E+02    0.27278E-04   -0.31630E-03   136   0.310E-01    0.461E-01
DAV:  34    -0.287898011012E+02    0.41967E-04   -0.13807E-04   152   0.110E-01    0.457E-01
DAV:  35    -0.287896975827E+02    0.10352E-03   -0.40710E-04   128   0.985E-02    0.467E-01
DAV:  36    -0.287896358600E+02    0.61723E-04   -0.61731E-03   128   0.363E-01    0.490E-01
DAV:  37    -0.287892655799E+02    0.37028E-03   -0.95598E-03   128   0.462E-01    0.499E-01
DAV:  38    -0.287894770264E+02   -0.21145E-03   -0.54921E-03   128   0.392E-01    0.481E-01
DAV:  39    -0.287898146071E+02   -0.33758E-03   -0.47679E-03   128   0.335E-01    0.444E-01
DAV:  40    -0.287898693002E+02   -0.54693E-04   -0.23946E-03   128   0.262E-01    0.414E-01
DAV:  41    -0.287904021078E+02   -0.53281E-03   -0.62158E-03   128   0.386E-01    0.342E-01
DAV:  42    -0.287899984669E+02    0.40364E-03   -0.88418E-03   128   0.442E-01    0.259E-01
DAV:  43    -0.287898951434E+02    0.10332E-03   -0.72193E-03   128   0.419E-01    0.216E-01
DAV:  44    -0.287900081378E+02   -0.11299E-03   -0.55190E-03   128   0.373E-01    0.191E-01
DAV:  45    -0.287900324981E+02   -0.24360E-04   -0.45179E-03   128   0.327E-01    0.177E-01
DAV:  46    -0.287901301230E+02   -0.97625E-04   -0.37008E-03   128   0.304E-01    0.169E-01
DAV:  47    -0.287901145390E+02    0.15584E-04   -0.22389E-03   128   0.264E-01    0.185E-01
DAV:  48    -0.287902152689E+02   -0.10073E-03   -0.56312E-03   128   0.358E-01    0.188E-01
DAV:  49    -0.287901638684E+02    0.51400E-04   -0.21775E-03   128   0.249E-01    0.178E-01
DAV:  50    -0.287902735286E+02   -0.10966E-03   -0.18123E-03   128   0.210E-01    0.182E-01
DAV:  51    -0.287903017137E+02   -0.28185E-04   -0.12361E-03   128   0.173E-01    0.183E-01
DAV:  52    -0.287901716964E+02    0.13002E-03   -0.32013E-03   128   0.274E-01    0.186E-01
DAV:  53    -0.287902615210E+02   -0.89825E-04   -0.44082E-03   128   0.343E-01    0.190E-01
DAV:  54    -0.287901656042E+02    0.95917E-04   -0.18821E-03   128   0.236E-01    0.187E-01
DAV:  55    -0.287901773027E+02   -0.11699E-04   -0.14726E-03   128   0.188E-01    0.187E-01
DAV:  56    -0.287901647992E+02    0.12504E-04   -0.61961E-04   128   0.130E-01    0.182E-01
DAV:  57    -0.287902790397E+02   -0.11424E-03   -0.93637E-04   128   0.177E-01    0.178E-01
DAV:  58    -0.287902195059E+02    0.59534E-04   -0.12480E-03   128   0.176E-01    0.170E-01
DAV:  59    -0.287902823271E+02   -0.62821E-04   -0.12493E-03   128   0.169E-01    0.164E-01
DAV:  60    -0.287902673740E+02    0.14953E-04   -0.10878E-04   128   0.717E-02
   2 F= -.28790267E+02 E0= -.28787750E+02  d E =-.364623E-01  mag=     0.0496    -0.1015    17.3519
 trial-energy change:   -0.036462  1 .order   -0.027553   -0.066916    0.011809
 step:   0.9072(harm=  0.8500)  dis= 0.02483  next Energy=   -28.790808 (dE=-0.370E-01)
 bond charge predicted
       N       E                     dE             d eps       ncg     rms          rms(c)
DAV:   1    -0.287901487518E+02    0.13358E-03   -0.10998E-01   128   0.159E+00    0.362E-01
DAV:   2    -0.287936647900E+02   -0.35160E-02   -0.62742E-02   136   0.164E+00    0.154E+00
DAV:   3    -0.287850367125E+02    0.86281E-02   -0.13035E-02   168   0.216E+00    0.111E+00
DAV:   4    -0.287912309013E+02   -0.61942E-02   -0.10710E-01   128   0.167E+00    0.521E-01
DAV:   5    -0.287888556410E+02    0.23753E-02   -0.28567E-02   128   0.100E+00    0.340E-01
DAV:   6    -0.287899578417E+02   -0.11022E-02   -0.30233E-02   128   0.822E-01    0.338E-01
DAV:   7    -0.287895243641E+02    0.43348E-03   -0.45898E-03   128   0.437E-01    0.275E-01
DAV:   8    -0.287898794035E+02   -0.35504E-03   -0.22522E-03   128   0.235E-01    0.262E-01
DAV:   9    -0.287900097154E+02   -0.13031E-03   -0.18128E-03   128   0.203E-01    0.258E-01
DAV:  10    -0.287900325575E+02   -0.22842E-04   -0.11487E-04   160   0.839E-02    0.259E-01
DAV:  11    -0.287900339900E+02   -0.14325E-05   -0.85610E-05   128   0.415E-02
   3 F= -.28790034E+02 E0= -.28787283E+02  d E =-.362289E-01  mag=     0.0508    -0.1034    17.3225
 curvature:  -0.36 expect dE=-0.139E-02 dE for cont linesearch -0.283E-03
 ZBRENT: interpolating
 opt :   0.8189  next Energy=   -28.790353 (dE=-0.365E-01)
 bond charge predicted
       N       E                     dE             d eps       ncg     rms          rms(c)
DAV:   1    -0.287895233743E+02    0.50918E-03   -0.10070E-01   128   0.152E+00    0.483E-01
DAV:   2    -0.288026590640E+02   -0.13136E-01   -0.75017E-02   152   0.298E+00    0.323E+00
DAV:   3    -0.287677389909E+02    0.34920E-01   -0.22321E-02   160   0.357E+00    0.718E-01
DAV:   4    -0.287952677047E+02   -0.27529E-01   -0.12519E-01   128   0.168E+00    0.689E-01
DAV:   5    -0.287881880253E+02    0.70797E-02   -0.25356E-02   128   0.103E+00    0.483E-01
DAV:   6    -0.287877068596E+02    0.48117E-03   -0.15175E-02   128   0.603E-01    0.417E-01
DAV:   7    -0.287880155361E+02   -0.30868E-03   -0.25249E-03   128   0.304E-01    0.375E-01
DAV:   8    -0.287884224445E+02   -0.40691E-03   -0.85084E-04   144   0.146E-01    0.359E-01
DAV:   9    -0.287887764157E+02   -0.35397E-03   -0.26694E-03   128   0.232E-01    0.340E-01
DAV:  10    -0.287893240107E+02   -0.54759E-03   -0.11934E-02   128   0.474E-01    0.354E-01
DAV:  11    -0.287892794228E+02    0.44588E-04   -0.86300E-04   128   0.206E-01    0.362E-01
DAV:  12    -0.287891984765E+02    0.80946E-04   -0.26427E-03   128   0.224E-01    0.347E-01
DAV:  13    -0.287890974020E+02    0.10107E-03   -0.92757E-03   128   0.409E-01    0.329E-01
DAV:  14    -0.287887940182E+02    0.30338E-03   -0.19683E-02   128   0.643E-01    0.300E-01
DAV:  15    -0.287881285022E+02    0.66552E-03   -0.25793E-02   136   0.786E-01    0.267E-01
DAV:  16    -0.287881314517E+02   -0.29496E-05   -0.21328E-02   128   0.743E-01    0.263E-01
DAV:  17    -0.287888275895E+02   -0.69614E-03   -0.11452E-02   144   0.550E-01    0.243E-01
DAV:  18    -0.287885185283E+02    0.30906E-03   -0.12926E-02   128   0.559E-01    0.232E-01
DAV:  19    -0.287884506655E+02    0.67863E-04   -0.15278E-02   144   0.616E-01    0.198E-01
DAV:  20    -0.287894906310E+02   -0.10400E-02   -0.18220E-02   128   0.635E-01    0.196E-01
DAV:  21    -0.287895264813E+02   -0.35850E-04   -0.93161E-03   128   0.493E-01    0.166E-01
DAV:  22    -0.287901370436E+02   -0.61056E-03   -0.14931E-02   128   0.579E-01    0.178E-01
DAV:  23    -0.287902830607E+02   -0.14602E-03   -0.17025E-02   128   0.603E-01    0.164E-01
DAV:  24    -0.287908735935E+02   -0.59053E-03   -0.20399E-02   128   0.693E-01    0.147E-01
DAV:  25    -0.287911779576E+02   -0.30436E-03   -0.24802E-02   128   0.751E-01    0.109E-01
DAV:  26    -0.287913111237E+02   -0.13317E-03   -0.24406E-02   128   0.742E-01    0.986E-02
DAV:  27    -0.287915443655E+02   -0.23324E-03   -0.21808E-02   128   0.706E-01    0.104E-01
DAV:  28    -0.287914172226E+02    0.12714E-03   -0.11592E-02   128   0.540E-01    0.976E-02
DAV:  29    -0.287913591882E+02    0.58034E-04   -0.17793E-03   128   0.275E-01    0.969E-02
DAV:  30    -0.287913035924E+02    0.55596E-04   -0.93830E-04   128   0.145E-01    0.101E-01
DAV:  31    -0.287912696913E+02    0.33901E-04   -0.59467E-04   128   0.113E-01    0.102E-01
DAV:  32    -0.287913480337E+02   -0.78342E-04   -0.20536E-03   128   0.206E-01    0.114E-01
DAV:  33    -0.287912860180E+02    0.62016E-04   -0.37371E-03   128   0.290E-01    0.134E-01
DAV:  34    -0.287911609043E+02    0.12511E-03   -0.41494E-03   128   0.312E-01    0.145E-01
DAV:  35    -0.287912635020E+02   -0.10260E-03   -0.59469E-03   128   0.369E-01    0.148E-01
DAV:  36    -0.287912158177E+02    0.47684E-04   -0.66728E-03   128   0.393E-01    0.143E-01
DAV:  37    -0.287914183996E+02   -0.20258E-03   -0.13971E-02   128   0.551E-01    0.144E-01
DAV:  38    -0.287912666693E+02    0.15173E-03   -0.14279E-02   128   0.564E-01    0.121E-01
DAV:  39    -0.287913862593E+02   -0.11959E-03   -0.11423E-02   128   0.513E-01    0.101E-01
DAV:  40    -0.287913737415E+02    0.12518E-04   -0.61708E-03   128   0.408E-01    0.819E-02
DAV:  41    -0.287914704252E+02   -0.96684E-04   -0.35670E-03   128   0.312E-01    0.722E-02
DAV:  42    -0.287915569654E+02   -0.86540E-04   -0.55456E-03   128   0.360E-01    0.751E-02
DAV:  43    -0.287915034181E+02    0.53547E-04   -0.42044E-03   128   0.322E-01    0.690E-02
DAV:  44    -0.287916038043E+02   -0.10039E-03   -0.40532E-03   128   0.323E-01    0.627E-02
DAV:  45    -0.287916799652E+02   -0.76161E-04   -0.38501E-03   128   0.314E-01    0.618E-02
DAV:  46    -0.287917057334E+02   -0.25768E-04   -0.32149E-03   128   0.280E-01    0.569E-02
DAV:  47    -0.287915657352E+02    0.14000E-03   -0.42854E-03   128   0.335E-01    0.709E-02
DAV:  48    -0.287918466370E+02   -0.28090E-03   -0.96738E-03   128   0.479E-01    0.829E-02
DAV:  49    -0.287918016407E+02    0.44996E-04   -0.21755E-03   128   0.271E-01    0.852E-02
DAV:  50    -0.287917982997E+02    0.33410E-05   -0.20970E-04   128   0.959E-02    0.835E-02
DAV:  51    -0.287917911061E+02    0.71936E-05   -0.35921E-05   160   0.330E-02
   4 F= -.28791791E+02 E0= -.28789605E+02  d E =-.379860E-01  mag=     0.0413    -0.0854    17.3718
 curvature:  -0.41 expect dE=-0.140E-02 dE for cont linesearch -0.462E-04
 ZBRENT: interpolating
 opt :   0.8432  next Energy=   -28.791825 (dE=-0.380E-01)
 bond charge predicted
       N       E                     dE             d eps       ncg     rms          rms(c)
DAV:   1    -0.287917452798E+02    0.53020E-04   -0.77057E-03   128   0.423E-01    0.112E-01
DAV:   2    -0.287929970543E+02   -0.12518E-02   -0.35640E-02   128   0.888E-01    0.340E-01
DAV:   3    -0.287914344989E+02    0.15626E-02   -0.21108E-02   128   0.921E-01    0.371E-01
DAV:   4    -0.287921180399E+02   -0.68354E-03   -0.22302E-02   128   0.783E-01    0.199E-01
DAV:   5    -0.287915490842E+02    0.56896E-03   -0.13873E-02   128   0.578E-01    0.130E-01
DAV:   6    -0.287914585002E+02    0.90584E-04   -0.46759E-03   128   0.353E-01    0.896E-02
DAV:   7    -0.287916636366E+02   -0.20514E-03   -0.44782E-03   128   0.328E-01    0.908E-02
DAV:   8    -0.287917017330E+02   -0.38096E-04   -0.40202E-03   128   0.293E-01    0.825E-02
DAV:   9    -0.287916279183E+02    0.73815E-04   -0.38429E-03   128   0.279E-01    0.733E-02
DAV:  10    -0.287915957695E+02    0.32149E-04   -0.20384E-03   128   0.216E-01    0.667E-02
DAV:  11    -0.287915871423E+02    0.86272E-05   -0.13758E-04   128   0.838E-02    0.647E-02
DAV:  12    -0.287915717957E+02    0.15347E-04   -0.12457E-04   128   0.508E-02    0.659E-02
DAV:  13    -0.287915529318E+02    0.18864E-04   -0.44148E-04   128   0.938E-02    0.648E-02
DAV:  14    -0.287915693574E+02   -0.16426E-04   -0.11841E-03   128   0.157E-01    0.649E-02
DAV:  15    -0.287916788533E+02   -0.10950E-03   -0.49309E-03   128   0.292E-01    0.806E-02
DAV:  16    -0.287915591842E+02    0.11967E-03   -0.50314E-03   128   0.304E-01    0.883E-02
DAV:  17    -0.287915757852E+02   -0.16601E-04   -0.19594E-03   128   0.217E-01    0.757E-02
DAV:  18    -0.287915968121E+02   -0.21027E-04   -0.13540E-03   128   0.180E-01    0.764E-02
DAV:  19    -0.287916266796E+02   -0.29867E-04   -0.20867E-03   128   0.204E-01    0.757E-02
DAV:  20    -0.287917530686E+02   -0.12639E-03   -0.44406E-03   128   0.299E-01    0.797E-02
DAV:  21    -0.287917217854E+02    0.31283E-04   -0.48177E-03   128   0.325E-01    0.784E-02
DAV:  22    -0.287917124884E+02    0.92970E-05   -0.24468E-03   128   0.253E-01    0.754E-02
DAV:  23    -0.287917259495E+02   -0.13461E-04   -0.15267E-03   128   0.199E-01    0.750E-02
DAV:  24    -0.287917441953E+02   -0.18246E-04   -0.17068E-03   128   0.195E-01    0.779E-02
DAV:  25    -0.287917664237E+02   -0.22228E-04   -0.18868E-03   128   0.195E-01    0.797E-02
DAV:  26    -0.287917527950E+02    0.13629E-04   -0.10521E-03   128   0.163E-01    0.812E-02
DAV:  27    -0.287917767052E+02   -0.23910E-04   -0.36889E-04   128   0.103E-01    0.834E-02
DAV:  28    -0.287917691239E+02    0.75813E-05   -0.22084E-05   144   0.348E-02
   5 F= -.28791769E+02 E0= -.28789526E+02  d E =-.379640E-01  mag=     0.0389    -0.0881    17.3642
 curvature:  -0.30 expect dE=-0.101E-02 dE for cont linesearch -0.198E-05
 trial: gam= 0.04073 g(F)=  0.339E-02 g(S)=  0.000E+00 ort = 0.669E-03 (trialstep = 0.969E+00)
 search vector abs. value=  0.356E-02
 bond charge predicted
       N       E                     dE             d eps       ncg     rms          rms(c)
DAV:   1    -0.287893440862E+02    0.24326E-02   -0.62288E-01   128   0.381E+00    0.706E-01
DAV:   2    -0.287966151524E+02   -0.72711E-02   -0.51345E-02   144   0.216E+00    0.226E+00
DAV:   3    -0.287865086612E+02    0.10106E-01   -0.29506E-02   176   0.366E+00    0.224E+00
DAV:   4    -0.287850611727E+02    0.14475E-02   -0.84232E-02   128   0.207E+00    0.564E-01
DAV:   5    -0.287892457647E+02   -0.41846E-02   -0.44845E-02   128   0.130E+00    0.285E-01
DAV:   6    -0.287932546606E+02   -0.40089E-02   -0.35914E-02   128   0.926E-01    0.201E-01
DAV:   7    -0.287937048589E+02   -0.45020E-03   -0.38280E-02   128   0.878E-01    0.153E-01
DAV:   8    -0.287945199496E+02   -0.81509E-03   -0.26936E-02   128   0.842E-01    0.183E-01
DAV:   9    -0.287947435204E+02   -0.22357E-03   -0.30491E-02   128   0.795E-01    0.164E-01
DAV:  10    -0.287942408229E+02    0.50270E-03   -0.19536E-02   128   0.682E-01    0.113E-01
DAV:  11    -0.287945696118E+02   -0.32879E-03   -0.15243E-02   128   0.580E-01    0.121E-01
DAV:  12    -0.287942154632E+02    0.35415E-03   -0.77903E-03   128   0.406E-01    0.859E-02
DAV:  13    -0.287941922321E+02    0.23231E-04   -0.85700E-04   128   0.190E-01    0.753E-02
DAV:  14    -0.287941585760E+02    0.33656E-04   -0.10302E-04   152   0.529E-02    0.762E-02
DAV:  15    -0.287941327285E+02    0.25848E-04   -0.22022E-04   128   0.636E-02    0.766E-02
DAV:  16    -0.287941709259E+02   -0.38197E-04   -0.50640E-04   128   0.992E-02    0.819E-02
DAV:  17    -0.287941570968E+02    0.13829E-04   -0.24856E-04   128   0.769E-02    0.808E-02
DAV:  18    -0.287941357170E+02    0.21380E-04   -0.37338E-04   128   0.875E-02    0.832E-02
DAV:  19    -0.287940942407E+02    0.41476E-04   -0.10098E-03   128   0.139E-01    0.841E-02
DAV:  20    -0.287940417248E+02    0.52516E-04   -0.18874E-03   128   0.194E-01    0.844E-02
DAV:  21    -0.287941118912E+02   -0.70166E-04   -0.46174E-03   128   0.299E-01    0.887E-02
DAV:  22    -0.287940673187E+02    0.44573E-04   -0.41374E-03   128   0.286E-01    0.886E-02
DAV:  23    -0.287940703218E+02   -0.30031E-05   -0.19139E-03   128   0.218E-01    0.840E-02
DAV:  24    -0.287940933809E+02   -0.23059E-04   -0.27976E-03   128   0.250E-01    0.798E-02
DAV:  25    -0.287941465274E+02   -0.53146E-04   -0.18895E-03   128   0.213E-01    0.755E-02
DAV:  26    -0.287941912451E+02   -0.44718E-04   -0.25568E-04   128   0.103E-01    0.738E-02
DAV:  27    -0.287942103514E+02   -0.19106E-04   -0.83807E-05   128   0.476E-02    0.732E-02
DAV:  28    -0.287942071280E+02    0.32234E-05   -0.37705E-06   136   0.170E-02
   6 F= -.28794207E+02 E0= -.28792055E+02  d E =-.243800E-02  mag=     0.0411    -0.0940    17.3215
 ZBRENT: can't locate minimum, use default step
 trial-energy change:   -0.002438  1 .order   -0.002931   -0.003314   -0.002548
 step:   3.8746(harm=  4.1929)  dis= 0.02647  next Energy=   -28.798941 (dE=-0.717E-02)
 bond charge predicted
       N       E                     dE             d eps       ncg     rms          rms(c)
DAV:   1    -0.287504427555E+02    0.43768E-01   -0.56086E+00   128   0.115E+01    0.214E+00
DAV:   2    -0.287865726936E+02   -0.36130E-01   -0.19142E-01   176   0.564E+00    0.466E+00
DAV:   3    -0.288172818872E+02   -0.30709E-01   -0.20558E-01   176   0.111E+01    0.568E+00
DAV:   4    -0.287378141371E+02    0.79468E-01   -0.15208E-01   176   0.557E+00    0.616E-01
DAV:   5    -0.287790211962E+02   -0.41207E-01   -0.10364E-01   128   0.188E+00    0.387E-01
DAV:   6    -0.287904057347E+02   -0.11385E-01   -0.97119E-02   128   0.182E+00    0.349E-01
DAV:   7    -0.287954398648E+02   -0.50341E-02   -0.82162E-02   128   0.147E+00    0.357E-01
DAV:   8    -0.287958559699E+02   -0.41611E-03   -0.65032E-02   128   0.135E+00    0.397E-01
DAV:   9    -0.287958779083E+02   -0.21938E-04   -0.42588E-02   128   0.111E+00    0.349E-01
DAV:  10    -0.287968190492E+02   -0.94114E-03   -0.40254E-02   128   0.951E-01    0.291E-01
DAV:  11    -0.287972476830E+02   -0.42863E-03   -0.29455E-02   128   0.834E-01    0.209E-01
DAV:  12    -0.287974725543E+02   -0.22487E-03   -0.29018E-02   128   0.782E-01    0.162E-01
DAV:  13    -0.287970468419E+02    0.42571E-03   -0.21389E-02   128   0.642E-01    0.143E-01
DAV:  14    -0.287972451055E+02   -0.19826E-03   -0.13302E-02   128   0.506E-01    0.136E-01
DAV:  15    -0.287975138368E+02   -0.26873E-03   -0.18506E-02   128   0.536E-01    0.126E-01
DAV:  16    -0.287980483073E+02   -0.53447E-03   -0.23154E-02   128   0.598E-01    0.142E-01
DAV:  17    -0.287986244274E+02   -0.57612E-03   -0.25387E-02   128   0.649E-01    0.194E-01
DAV:  18    -0.287984704385E+02    0.15399E-03   -0.33212E-02   128   0.790E-01    0.216E-01
DAV:  19    -0.287985159913E+02   -0.45553E-04   -0.34806E-02   128   0.786E-01    0.194E-01
DAV:  20    -0.287986836595E+02   -0.16767E-03   -0.30275E-02   128   0.736E-01    0.143E-01
DAV:  21    -0.287987922258E+02   -0.10857E-03   -0.23327E-02   128   0.700E-01    0.970E-02
DAV:  22    -0.287986688948E+02    0.12333E-03   -0.15066E-02   128   0.547E-01    0.674E-02
DAV:  23    -0.287986792092E+02   -0.10314E-04   -0.77756E-03   128   0.424E-01    0.537E-02
DAV:  24    -0.287986366753E+02    0.42534E-04   -0.18045E-03   128   0.223E-01    0.464E-02
DAV:  25    -0.287986284369E+02    0.82384E-05   -0.20985E-04   152   0.815E-02    0.493E-02
DAV:  26    -0.287986246916E+02    0.37453E-05   -0.35594E-04   128   0.792E-02    0.470E-02
DAV:  27    -0.287986695890E+02   -0.44897E-04   -0.10738E-03   128   0.135E-01    0.514E-02
DAV:  28    -0.287986009352E+02    0.68654E-04   -0.93440E-04   128   0.143E-01    0.539E-02
DAV:  29    -0.287986344071E+02   -0.33472E-04   -0.23906E-03   128   0.210E-01    0.616E-02
DAV:  30    -0.287985925894E+02    0.41818E-04   -0.33868E-03   128   0.261E-01    0.658E-02
DAV:  31    -0.287985417230E+02    0.50866E-04   -0.34924E-03   128   0.271E-01    0.685E-02
DAV:  32    -0.287986164145E+02   -0.74692E-04   -0.50978E-03   128   0.321E-01    0.781E-02
DAV:  33    -0.287986604198E+02   -0.44005E-04   -0.88181E-03   128   0.432E-01    0.782E-02
DAV:  34    -0.287986248137E+02    0.35606E-04   -0.99735E-03   128   0.472E-01    0.660E-02
DAV:  35    -0.287985755019E+02    0.49312E-04   -0.92015E-03   128   0.468E-01    0.557E-02
DAV:  36    -0.287985909997E+02   -0.15498E-04   -0.70520E-03   128   0.408E-01    0.505E-02
DAV:  37    -0.287986263024E+02   -0.35303E-04   -0.60964E-03   128   0.380E-01    0.488E-02
DAV:  38    -0.287986264880E+02   -0.18558E-06   -0.48982E-03   128   0.340E-01    0.445E-02
DAV:  39    -0.287987105306E+02   -0.84043E-04   -0.48409E-03   128   0.337E-01    0.464E-02
DAV:  40    -0.287987182786E+02   -0.77479E-05   -0.40391E-03   128   0.309E-01    0.388E-02
DAV:  41    -0.287987717516E+02   -0.53473E-04   -0.38203E-03   128   0.303E-01    0.377E-02
DAV:  42    -0.287987951567E+02   -0.23405E-04   -0.32131E-03   128   0.274E-01    0.336E-02
DAV:  43    -0.287988454905E+02   -0.50334E-04   -0.24292E-03   128   0.240E-01    0.282E-02
DAV:  44    -0.287988737406E+02   -0.28250E-04   -0.22843E-03   128   0.225E-01    0.261E-02
DAV:  45    -0.287989037904E+02   -0.30050E-04   -0.21859E-03   128   0.217E-01    0.234E-02
DAV:  46    -0.287989246581E+02   -0.20868E-04   -0.13151E-03   128   0.170E-01    0.176E-02
DAV:  47    -0.287989469473E+02   -0.22289E-04   -0.12946E-03   128   0.167E-01    0.197E-02
DAV:  48    -0.287989384290E+02    0.85183E-05   -0.11616E-03   128   0.166E-01    0.168E-02
DAV:  49    -0.287989792743E+02   -0.40845E-04   -0.12167E-03   128   0.174E-01    0.173E-02
DAV:  50    -0.287989757123E+02    0.35620E-05   -0.89326E-04   128   0.143E-01    0.149E-02
DAV:  51    -0.287989953342E+02   -0.19622E-04   -0.47584E-04   128   0.106E-01    0.118E-02
DAV:  52    -0.287990005733E+02   -0.52391E-05   -0.56662E-04   128   0.112E-01    0.145E-02
DAV:  53    -0.287990111713E+02   -0.10598E-04   -0.47360E-04   128   0.103E-01    0.137E-02
DAV:  54    -0.287990191750E+02   -0.80037E-05   -0.32948E-04   128   0.869E-02    0.117E-02
DAV:  55    -0.287990310039E+02   -0.11829E-04   -0.29764E-04   128   0.835E-02    0.111E-02
DAV:  56    -0.287990253490E+02    0.56550E-05   -0.28366E-04   128   0.838E-02    0.110E-02
DAV:  57    -0.287990380327E+02   -0.12684E-04   -0.62203E-04   128   0.110E-01    0.267E-02
DAV:  58    -0.287990232152E+02    0.14818E-04   -0.62782E-04   128   0.114E-01    0.132E-02
DAV:  59    -0.287990371369E+02   -0.13922E-04   -0.16286E-04   128   0.728E-02    0.120E-02
DAV:  60    -0.287990385145E+02   -0.13776E-05   -0.21482E-04   128   0.696E-02
   7 F= -.28799039E+02 E0= -.28797103E+02  d E =-.726939E-02  mag=     0.0287    -0.1023    17.2047
 curvature:  -2.16 expect dE=-0.604E-02 dE for cont linesearch -0.190E-04
 trial: gam= 0.70649 g(F)=  0.279E-02 g(S)=  0.000E+00 ort = 0.177E-03 (trialstep = 0.114E+01)
 search vector abs. value=  0.482E-02
 bond charge predicted
       N       E                     dE             d eps       ncg     rms          rms(c)
DAV:   1    -0.287929295151E+02    0.61076E-02   -0.11751E+00   128   0.517E+00    0.121E+00
DAV:   2    -0.288188038496E+02   -0.25874E-01   -0.81483E-02   192   0.574E+00    0.475E+00
DAV:   3    -0.287667337181E+02    0.52070E-01   -0.67341E-02   192   0.771E+00    0.214E+00
DAV:   4    -0.287902955025E+02   -0.23562E-01   -0.32141E-02   160   0.228E+00    0.796E-01
DAV:   5    -0.287921760836E+02   -0.18806E-02   -0.61187E-02   136   0.146E+00    0.585E-01
DAV:   6    -0.287958510520E+02   -0.36750E-02   -0.85753E-02   128   0.134E+00    0.432E-01
DAV:   7    -0.287966316932E+02   -0.78064E-03   -0.56240E-02   128   0.131E+00    0.260E-01
DAV:   8    -0.288023542665E+02   -0.57226E-02   -0.45689E-02   128   0.105E+00    0.279E-01
DAV:   9    -0.288029117311E+02   -0.55746E-03   -0.87672E-02   128   0.119E+00    0.266E-01
DAV:  10    -0.288022203335E+02    0.69140E-03   -0.45132E-02   128   0.104E+00    0.268E-01
DAV:  11    -0.288026605165E+02   -0.44018E-03   -0.39095E-02   128   0.938E-01    0.271E-01
DAV:  12    -0.288026237987E+02    0.36718E-04   -0.23318E-02   128   0.760E-01    0.219E-01
DAV:  13    -0.288024868833E+02    0.13692E-03   -0.21964E-02   128   0.700E-01    0.151E-01
DAV:  14    -0.288023435195E+02    0.14336E-03   -0.23033E-02   128   0.718E-01    0.106E-01
DAV:  15    -0.288027301511E+02   -0.38663E-03   -0.22599E-02   128   0.663E-01    0.114E-01
DAV:  16    -0.288023382648E+02    0.39189E-03   -0.15981E-02   128   0.562E-01    0.880E-02
DAV:  17    -0.288026444397E+02   -0.30617E-03   -0.11996E-02   128   0.512E-01    0.114E-01
DAV:  18    -0.288026448784E+02   -0.43867E-06   -0.94756E-03   128   0.413E-01    0.119E-01
DAV:  19    -0.288026302926E+02    0.14586E-04   -0.11670E-02   128   0.468E-01    0.104E-01
DAV:  20    -0.288023665124E+02    0.26378E-03   -0.89368E-03   128   0.432E-01    0.692E-02
DAV:  21    -0.288025164860E+02   -0.14997E-03   -0.47400E-03   128   0.341E-01    0.581E-02
DAV:  22    -0.288026520257E+02   -0.13554E-03   -0.49051E-03   128   0.336E-01    0.589E-02
DAV:  23    -0.288026024508E+02    0.49575E-04   -0.22385E-03   128   0.241E-01    0.553E-02
DAV:  24    -0.288026075127E+02   -0.50618E-05   -0.12864E-03   128   0.180E-01    0.538E-02
DAV:  25    -0.288026031145E+02    0.43982E-05   -0.33011E-04   128   0.101E-01    0.522E-02
DAV:  26    -0.288026294255E+02   -0.26311E-04   -0.19485E-04   128   0.675E-02    0.519E-02
DAV:  27    -0.288026233610E+02    0.60646E-05   -0.24335E-05   160   0.296E-02
   8 F= -.28802623E+02 E0= -.28800581E+02  d E =-.358485E-02  mag=     0.0288    -0.1014    17.0282
 ZBRENT: can't locate minimum, use default step
 trial-energy change:   -0.003585  1 .order   -0.003631   -0.003340   -0.003922
 step:   4.5773(harm=  4.5773)  dis= 0.03760  next Energy=   -28.817049 (dE=-0.180E-01)
 bond charge predicted
       N       E                     dE             d eps       ncg     rms          rms(c)
DAV:   1    -0.287282641179E+02    0.74365E-01   -0.10589E+01   128   0.157E+01    0.333E+00
DAV:   2    -0.288490855071E+02   -0.12082E+00   -0.61186E-01   184   0.143E+01    0.821E+00
DAV:   3    -0.287699781029E+02    0.79107E-01   -0.68044E-01   184   0.189E+01    0.458E+00
DAV:   4    -0.287601648670E+02    0.98132E-02   -0.12952E-01   168   0.715E+00    0.740E-01
DAV:   5    -0.287802133090E+02   -0.20048E-01   -0.73783E-02   144   0.270E+00    0.650E-01
DAV:   6    -0.287938973521E+02   -0.13684E-01   -0.11212E-01   144   0.264E+00    0.615E-01
DAV:   7    -0.288045931023E+02   -0.10696E-01   -0.11969E-01   128   0.182E+00    0.445E-01
DAV:   8    -0.288092684110E+02   -0.46753E-02   -0.11463E-01   128   0.177E+00    0.501E-01
DAV:   9    -0.288084631169E+02    0.80529E-03   -0.40508E-02   144   0.128E+00    0.540E-01
DAV:  10    -0.288094567485E+02   -0.99363E-03   -0.49040E-02   128   0.103E+00    0.551E-01
DAV:  11    -0.288083619734E+02    0.10948E-02   -0.35555E-02   128   0.862E-01    0.428E-01
DAV:  12    -0.288109426041E+02   -0.25806E-02   -0.59151E-02   128   0.114E+00    0.300E-01
DAV:  13    -0.288134197364E+02   -0.24771E-02   -0.54152E-02   128   0.107E+00    0.230E-01
DAV:  14    -0.288141924191E+02   -0.77268E-03   -0.47688E-02   128   0.100E+00    0.199E-01
DAV:  15    -0.288139100433E+02    0.28238E-03   -0.39647E-02   128   0.944E-01    0.174E-01
DAV:  16    -0.288150244059E+02   -0.11144E-02   -0.21090E-02   128   0.726E-01    0.207E-01
DAV:  17    -0.288148629901E+02    0.16142E-03   -0.19862E-02   128   0.648E-01    0.194E-01
DAV:  18    -0.288154277066E+02   -0.56472E-03   -0.24781E-02   128   0.746E-01    0.184E-01
DAV:  19    -0.288157406586E+02   -0.31295E-03   -0.27593E-02   128   0.755E-01    0.153E-01
DAV:  20    -0.288159212569E+02   -0.18060E-03   -0.19729E-02   128   0.676E-01    0.122E-01
DAV:  21    -0.288155084017E+02    0.41286E-03   -0.13787E-02   128   0.569E-01    0.767E-02
DAV:  22    -0.288156386028E+02   -0.13020E-03   -0.79659E-03   128   0.457E-01    0.514E-02
DAV:  23    -0.288160123724E+02   -0.37377E-03   -0.12565E-02   128   0.524E-01    0.780E-02
DAV:  24    -0.288158790616E+02    0.13331E-03   -0.90165E-03   128   0.462E-01    0.637E-02
DAV:  25    -0.288159243269E+02   -0.45265E-04   -0.65111E-03   128   0.392E-01    0.636E-02
DAV:  26    -0.288160614450E+02   -0.13712E-03   -0.59101E-03   128   0.367E-01    0.667E-02
DAV:  27    -0.288161643939E+02   -0.10295E-03   -0.69066E-03   128   0.385E-01    0.694E-02
DAV:  28    -0.288161985450E+02   -0.34151E-04   -0.73306E-03   128   0.413E-01    0.672E-02
DAV:  29    -0.288161892180E+02    0.93271E-05   -0.58493E-03   128   0.368E-01    0.607E-02
DAV:  30    -0.288163689148E+02   -0.17970E-03   -0.57290E-03   128   0.351E-01    0.598E-02
DAV:  31    -0.288163582418E+02    0.10673E-04   -0.52147E-03   128   0.335E-01    0.524E-02
DAV:  32    -0.288163809797E+02   -0.22738E-04   -0.23324E-03   128   0.252E-01    0.446E-02
DAV:  33    -0.288164595840E+02   -0.78604E-04   -0.23110E-03   128   0.217E-01    0.426E-02
DAV:  34    -0.288164879802E+02   -0.28396E-04   -0.23383E-03   128   0.223E-01    0.403E-02
DAV:  35    -0.288165018782E+02   -0.13898E-04   -0.27420E-03   128   0.255E-01    0.377E-02
DAV:  36    -0.288165868137E+02   -0.84936E-04   -0.32220E-03   128   0.266E-01    0.398E-02
DAV:  37    -0.288166123856E+02   -0.25572E-04   -0.24898E-03   128   0.236E-01    0.352E-02
DAV:  38    -0.288166656358E+02   -0.53250E-04   -0.19845E-03   128   0.218E-01    0.329E-02
DAV:  39    -0.288167055819E+02   -0.39946E-04   -0.20176E-03   128   0.215E-01    0.324E-02
DAV:  40    -0.288166861687E+02    0.19413E-04   -0.16136E-03   128   0.194E-01    0.284E-02
DAV:  41    -0.288166976416E+02   -0.11473E-04   -0.10219E-03   128   0.158E-01    0.252E-02
DAV:  42    -0.288167380309E+02   -0.40389E-04   -0.12787E-03   128   0.170E-01    0.285E-02
DAV:  43    -0.288167383404E+02   -0.30952E-06   -0.10375E-03   128   0.155E-01    0.245E-02
DAV:  44    -0.288167635281E+02   -0.25188E-04   -0.96473E-04   128   0.151E-01    0.224E-02
DAV:  45    -0.288167670613E+02   -0.35332E-05   -0.49544E-04   128   0.113E-01    0.199E-02
DAV:  46    -0.288167847525E+02   -0.17691E-04   -0.71706E-04   128   0.127E-01    0.222E-02
DAV:  47    -0.288167968820E+02   -0.12129E-04   -0.78801E-04   128   0.129E-01    0.209E-02
DAV:  48    -0.288167954710E+02    0.14111E-05   -0.59120E-04   128   0.122E-01    0.205E-02
DAV:  49    -0.288168082999E+02   -0.12829E-04   -0.48767E-04   128   0.107E-01    0.182E-02
DAV:  50    -0.288168211140E+02   -0.12814E-04   -0.39630E-04   128   0.983E-02    0.168E-02
DAV:  51    -0.288168203550E+02    0.75898E-06   -0.55828E-04   128   0.112E-01    0.161E-02
DAV:  52    -0.288168256256E+02   -0.52705E-05   -0.77490E-04   128   0.136E-01    0.213E-02
DAV:  53    -0.288168353146E+02   -0.96891E-05   -0.81588E-04   128   0.133E-01    0.177E-02
DAV:  54    -0.288168400943E+02   -0.47797E-05   -0.48251E-04   128   0.109E-01    0.171E-02
DAV:  55    -0.288168491913E+02   -0.90971E-05   -0.34479E-04   128   0.910E-02    0.142E-02
DAV:  56    -0.288168695420E+02   -0.20351E-04   -0.51902E-04   128   0.107E-01    0.139E-02
DAV:  57    -0.288168459609E+02    0.23581E-04   -0.78537E-04   128   0.144E-01    0.175E-02
DAV:  58    -0.288168772248E+02   -0.31264E-04   -0.10470E-03   128   0.152E-01    0.168E-02
DAV:  59    -0.288168691749E+02    0.80499E-05   -0.50320E-04   128   0.115E-01    0.118E-02
DAV:  60    -0.288168794723E+02   -0.10297E-04   -0.29876E-04   128   0.888E-02
   9 F= -.28816879E+02 E0= -.28814892E+02  d E =-.178410E-01  mag=     0.0259    -0.0973    16.5130
 curvature:  -5.90 expect dE=-0.344E-01 dE for cont linesearch -0.230E-01
 ZBRENT: increasing intervall
 opt :  11.4434  next Energy=   -28.852877 (dE=-0.538E-01)
 bond charge predicted
       N       E                     dE             d eps       ncg     rms          rms(c)
DAV:   1    -0.284811452242E+02    0.33572E+00   -0.42717E+01   128   0.324E+01    0.498E+00
DAV:   2    -0.286889644015E+02   -0.20782E+00   -0.76988E-01   152   0.788E+00    0.314E+00
DAV:   3    -0.288482854642E+02   -0.15932E+00   -0.32212E-01   200   0.132E+01    0.424E+00
DAV:   4    -0.287741338076E+02    0.74152E-01   -0.20862E-01   200   0.966E+00    0.721E-01
DAV:   5    -0.288020662974E+02   -0.27932E-01   -0.98318E-02   144   0.268E+00    0.745E-01
DAV:   6    -0.288196501254E+02   -0.17584E-01   -0.15861E-01   136   0.343E+00    0.677E-01
DAV:   7    -0.288313503497E+02   -0.11700E-01   -0.11586E-01   136   0.265E+00    0.386E-01
DAV:   8    -0.288415181199E+02   -0.10168E-01   -0.11820E-01   128   0.209E+00    0.484E-01
DAV:   9    -0.288432984877E+02   -0.17804E-02   -0.48863E-02   144   0.171E+00    0.223E-01
DAV:  10    -0.288469772895E+02   -0.36788E-02   -0.74014E-02   128   0.149E+00    0.276E-01
DAV:  11    -0.288482826466E+02   -0.13054E-02   -0.42305E-02   144   0.120E+00    0.200E-01
DAV:  12    -0.288503289507E+02   -0.20463E-02   -0.65075E-02   128   0.122E+00    0.220E-01
DAV:  13    -0.288502520453E+02    0.76905E-04   -0.44214E-02   128   0.108E+00    0.188E-01
DAV:  14    -0.288506630598E+02   -0.41101E-03   -0.39040E-02   128   0.943E-01    0.179E-01
DAV:  15    -0.288500155412E+02    0.64752E-03   -0.34557E-02   128   0.899E-01    0.148E-01
DAV:  16    -0.288494476854E+02    0.56786E-03   -0.24277E-02   128   0.772E-01    0.112E-01
DAV:  17    -0.288491366695E+02    0.31102E-03   -0.15349E-02   128   0.621E-01    0.715E-02
DAV:  18    -0.288492729311E+02   -0.13626E-03   -0.10085E-02   128   0.514E-01    0.662E-02
DAV:  19    -0.288492779059E+02   -0.49748E-05   -0.76549E-03   128   0.422E-01    0.600E-02
DAV:  20    -0.288493801368E+02   -0.10223E-03   -0.79139E-03   128   0.433E-01    0.586E-02
DAV:  21    -0.288494263946E+02   -0.46258E-04   -0.92838E-03   128   0.447E-01    0.610E-02
DAV:  22    -0.288495472807E+02   -0.12089E-03   -0.10221E-02   128   0.479E-01    0.613E-02
DAV:  23    -0.288495396180E+02    0.76626E-05   -0.90444E-03   128   0.446E-01    0.442E-02
DAV:  24    -0.288495990167E+02   -0.59399E-04   -0.79830E-03   128   0.437E-01    0.431E-02
DAV:  25    -0.288496783162E+02   -0.79300E-04   -0.67119E-03   128   0.380E-01    0.448E-02
DAV:  26    -0.288497652774E+02   -0.86961E-04   -0.61845E-03   128   0.376E-01    0.388E-02
DAV:  27    -0.288497702357E+02   -0.49583E-05   -0.52539E-03   128   0.354E-01    0.368E-02
DAV:  28    -0.288497892889E+02   -0.19053E-04   -0.47479E-03   128   0.332E-01    0.333E-02
DAV:  29    -0.288499105175E+02   -0.12123E-03   -0.44261E-03   128   0.323E-01    0.320E-02
DAV:  30    -0.288499579944E+02   -0.47477E-04   -0.41230E-03   128   0.305E-01    0.300E-02
DAV:  31    -0.288499527176E+02    0.52768E-05   -0.40165E-03   128   0.298E-01    0.311E-02
DAV:  32    -0.288500022695E+02   -0.49552E-04   -0.35624E-03   128   0.286E-01    0.270E-02
DAV:  33    -0.288500647765E+02   -0.62507E-04   -0.27584E-03   128   0.262E-01    0.214E-02
DAV:  34    -0.288500818461E+02   -0.17070E-04   -0.20446E-03   128   0.219E-01    0.179E-02
DAV:  35    -0.288501056281E+02   -0.23782E-04   -0.14232E-03   128   0.191E-01    0.160E-02
DAV:  36    -0.288501224333E+02   -0.16805E-04   -0.11724E-03   128   0.169E-01    0.169E-02
DAV:  37    -0.288501335490E+02   -0.11116E-04   -0.95646E-04   128   0.152E-01    0.146E-02
DAV:  38    -0.288501601887E+02   -0.26640E-04   -0.77714E-04   128   0.139E-01    0.135E-02
DAV:  39    -0.288501854848E+02   -0.25296E-04   -0.61578E-04   128   0.125E-01    0.117E-02
DAV:  40    -0.288501903673E+02   -0.48825E-05   -0.52643E-04   128   0.114E-01    0.101E-02
DAV:  41    -0.288502005657E+02   -0.10198E-04   -0.50109E-04   128   0.109E-01    0.943E-03
DAV:  42    -0.288502117898E+02   -0.11224E-04   -0.42020E-04   128   0.100E-01    0.842E-03
DAV:  43    -0.288502267541E+02   -0.14964E-04   -0.35165E-04   128   0.913E-02    0.789E-03
DAV:  44    -0.288502328519E+02   -0.60978E-05   -0.31468E-04   128   0.862E-02    0.625E-03
DAV:  45    -0.288502382741E+02   -0.54222E-05   -0.24536E-04   128   0.787E-02    0.641E-03
DAV:  46    -0.288502448251E+02   -0.65510E-05   -0.22453E-04   128   0.732E-02    0.669E-03
DAV:  47    -0.288502460298E+02   -0.12046E-05   -0.20143E-04   128   0.708E-02    0.537E-03
DAV:  48    -0.288502566422E+02   -0.10612E-04   -0.19353E-04   128   0.684E-02    0.586E-03
DAV:  49    -0.288502591020E+02   -0.24598E-05   -0.13484E-04   128   0.581E-02    0.429E-03
DAV:  50    -0.288502659316E+02   -0.68296E-05   -0.11484E-04   128   0.547E-02    0.425E-03
DAV:  51    -0.288502720352E+02   -0.61036E-05   -0.97864E-05   128   0.481E-02
  10 F= -.28850272E+02 E0= -.28850280E+02  d E =-.512335E-01  mag=     0.0257    -0.0929    15.9972
 curvature:  -9.23 expect dE=-0.214E+00 dE for cont linesearch -0.132E-01
 ZBRENT: increasing intervall
 opt :  25.1754  next Energy=   -28.862828 (dE=-0.638E-01)
 bond charge predicted
       N       E                     dE             d eps       ncg     rms          rms(c)
DAV:   1    -0.272682280523E+02    0.15820E+01   -0.17782E+02   128   0.726E+01    0.965E+00
DAV:   2    -0.284348472273E+02   -0.11666E+01   -0.36633E+00   168   0.179E+01    0.623E+00
DAV:   3    -0.289228094007E+02   -0.48796E+00   -0.12405E+00   192   0.246E+01    0.676E+00
DAV:   4    -0.287264747894E+02    0.19633E+00   -0.41489E-01   208   0.173E+01    0.993E-01
DAV:   5    -0.287599905775E+02   -0.33516E-01   -0.14453E-01   136   0.268E+00    0.838E-01
DAV:   6    -0.287721223212E+02   -0.12132E-01   -0.17634E-01   152   0.420E+00    0.108E+00
DAV:   7    -0.287756725342E+02   -0.35502E-02   -0.25726E-02   184   0.365E+00    0.637E-01
DAV:   8    -0.287786948809E+02   -0.30223E-02   -0.15852E-01   128   0.277E+00    0.592E-01
DAV:   9    -0.287807204846E+02   -0.20256E-02   -0.23664E-02   192   0.242E+00    0.482E-01
DAV:  10    -0.287780633325E+02    0.26572E-02   -0.88730E-02   128   0.190E+00    0.232E-01
DAV:  11    -0.287795480879E+02   -0.14848E-02   -0.63789E-02   128   0.147E+00    0.199E-01
DAV:  12    -0.287796428720E+02   -0.94784E-04   -0.58457E-02   128   0.125E+00    0.153E-01
DAV:  13    -0.287798770431E+02   -0.23417E-03   -0.54560E-02   128   0.115E+00    0.158E-01
DAV:  14    -0.287794178218E+02    0.45922E-03   -0.35329E-02   128   0.938E-01    0.117E-01
DAV:  15    -0.287792537643E+02    0.16406E-03   -0.25958E-02   128   0.795E-01    0.975E-02
DAV:  16    -0.287791753951E+02    0.78369E-04   -0.22104E-02   128   0.715E-01    0.790E-02
DAV:  17    -0.287791922963E+02   -0.16901E-04   -0.14340E-02   128   0.580E-01    0.723E-02
DAV:  18    -0.287790677388E+02    0.12456E-03   -0.11364E-02   128   0.505E-01    0.600E-02
DAV:  19    -0.287791113900E+02   -0.43651E-04   -0.85070E-03   128   0.436E-01    0.515E-02
DAV:  20    -0.287790719223E+02    0.39468E-04   -0.65725E-03   128   0.385E-01    0.403E-02
DAV:  21    -0.287790538076E+02    0.18115E-04   -0.58958E-03   128   0.368E-01    0.346E-02
DAV:  22    -0.287791856315E+02   -0.13182E-03   -0.45479E-03   128   0.327E-01    0.335E-02
DAV:  23    -0.287791940738E+02   -0.84423E-05   -0.41593E-03   128   0.306E-01    0.278E-02
DAV:  24    -0.287791927671E+02    0.13067E-05   -0.33305E-03   128   0.269E-01    0.252E-02
DAV:  25    -0.287792333042E+02   -0.40537E-04   -0.27979E-03   128   0.256E-01    0.265E-02
DAV:  26    -0.287792550427E+02   -0.21738E-04   -0.23055E-03   128   0.231E-01    0.210E-02
DAV:  27    -0.287792951806E+02   -0.40138E-04   -0.20410E-03   128   0.210E-01    0.197E-02
DAV:  28    -0.287793117627E+02   -0.16582E-04   -0.17589E-03   128   0.195E-01    0.194E-02
DAV:  29    -0.287793217921E+02   -0.10029E-04   -0.13413E-03   128   0.175E-01    0.155E-02
DAV:  30    -0.287793352764E+02   -0.13484E-04   -0.11816E-03   128   0.160E-01    0.142E-02
DAV:  31    -0.287793424158E+02   -0.71394E-05   -0.10265E-03   128   0.156E-01    0.133E-02
DAV:  32    -0.287793578144E+02   -0.15399E-04   -0.10304E-03   128   0.149E-01    0.170E-02
DAV:  33    -0.287793621429E+02   -0.43286E-05   -0.90255E-04   128   0.145E-01    0.122E-02
DAV:  34    -0.287793863737E+02   -0.24231E-04   -0.81849E-04   128   0.137E-01    0.126E-02
DAV:  35    -0.287793934018E+02   -0.70281E-05   -0.82445E-04   128   0.136E-01    0.113E-02
DAV:  36    -0.287794096064E+02   -0.16205E-04   -0.82808E-04   128   0.132E-01    0.111E-02
DAV:  37    -0.287794168550E+02   -0.72486E-05   -0.52539E-04   128   0.114E-01    0.819E-03
DAV:  38    -0.287794280609E+02   -0.11206E-04   -0.36420E-04   128   0.942E-02    0.763E-03
DAV:  39    -0.287794362934E+02   -0.82325E-05   -0.28510E-04   128   0.836E-02    0.653E-03
DAV:  40    -0.287794443636E+02   -0.80701E-05   -0.20428E-04   128   0.727E-02    0.532E-03
DAV:  41    -0.287794424815E+02    0.18820E-05   -0.18325E-04   128   0.684E-02    0.534E-03
DAV:  42    -0.287794492446E+02   -0.67631E-05   -0.22299E-04   128   0.706E-02    0.598E-03
DAV:  43    -0.287794496256E+02   -0.38096E-06   -0.17223E-04   128   0.642E-02    0.453E-03
DAV:  44    -0.287794567192E+02   -0.70936E-05   -0.14326E-04   128   0.581E-02    0.448E-03
DAV:  45    -0.287794611611E+02   -0.44419E-05   -0.14517E-04   128   0.585E-02    0.428E-03
DAV:  46    -0.287794620036E+02   -0.84254E-06   -0.12135E-04   128   0.535E-02    0.373E-03
DAV:  47    -0.287794649925E+02   -0.29889E-05   -0.10995E-04   128   0.513E-02    0.381E-03
DAV:  48    -0.287794692444E+02   -0.42519E-05   -0.95995E-05   128   0.479E-02
  11 F= -.28779469E+02 E0= -.28779677E+02  d E =0.195693E-01  mag=     0.0248    -0.0928    15.9904
 curvature:  -8.79 expect dE=-0.284E+01 dE for cont linesearch -0.340E+00
 ZBRENT: bracketing found
 ZBRENT: interpolating
 opt :  13.6565  next Energy=   -28.853176 (dE=-0.541E-01)
 bond charge predicted
       N       E                     dE             d eps       ncg     rms          rms(c)
DAV:   1    -0.277662902873E+02    0.10132E+01   -0.12347E+02   128   0.588E+01    0.824E+00
DAV:   2    -0.287941422203E+02   -0.10279E+01   -0.32545E+00   176   0.270E+01    0.989E+00
DAV:   3    -0.290580646553E+02   -0.26392E+00   -0.21137E+00   192   0.414E+01    0.107E+01
DAV:   4    -0.287763693420E+02    0.28170E+00   -0.70295E-01   200   0.211E+01    0.132E+00
DAV:   5    -0.288260752139E+02   -0.49706E-01   -0.21143E-01   168   0.578E+00    0.125E+00
DAV:   6    -0.288383110408E+02   -0.12236E-01   -0.16148E-01   176   0.516E+00    0.875E-01
DAV:   7    -0.288501329856E+02   -0.11822E-01   -0.16953E-01   136   0.319E+00    0.657E-01
DAV:   8    -0.288516169308E+02   -0.14839E-02   -0.16180E-01   136   0.307E+00    0.562E-01
DAV:   9    -0.288517743674E+02   -0.15744E-03   -0.63391E-02   144   0.219E+00    0.497E-01
DAV:  10    -0.288541800229E+02   -0.24057E-02   -0.10020E-01   128   0.194E+00    0.441E-01
DAV:  11    -0.288525713718E+02    0.16087E-02   -0.86488E-02   128   0.168E+00    0.229E-01
DAV:  12    -0.288552927338E+02   -0.27214E-02   -0.73792E-02   128   0.141E+00    0.322E-01
DAV:  13    -0.288532417104E+02    0.20510E-02   -0.30035E-02   128   0.109E+00    0.145E-01
DAV:  14    -0.288542032555E+02   -0.96155E-03   -0.56808E-02   128   0.110E+00    0.166E-01
DAV:  15    -0.288533850551E+02    0.81820E-03   -0.28650E-02   128   0.891E-01    0.135E-01
DAV:  16    -0.288539534200E+02   -0.56836E-03   -0.27335E-02   128   0.751E-01    0.147E-01
DAV:  17    -0.288532467716E+02    0.70665E-03   -0.25480E-02   128   0.744E-01    0.123E-01
DAV:  18    -0.288528826012E+02    0.36417E-03   -0.18375E-02   128   0.658E-01    0.872E-02
DAV:  19    -0.288528547013E+02    0.27900E-04   -0.13665E-02   128   0.602E-01    0.735E-02
DAV:  20    -0.288527441245E+02    0.11058E-03   -0.90664E-03   128   0.472E-01    0.534E-02
DAV:  21    -0.288528511800E+02   -0.10706E-03   -0.87713E-03   128   0.445E-01    0.456E-02
DAV:  22    -0.288528466431E+02    0.45369E-05   -0.71173E-03   128   0.406E-01    0.433E-02
DAV:  23    -0.288528222275E+02    0.24416E-04   -0.51831E-03   128   0.348E-01    0.362E-02
DAV:  24    -0.288529452719E+02   -0.12304E-03   -0.49856E-03   128   0.344E-01    0.377E-02
DAV:  25    -0.288528722092E+02    0.73063E-04   -0.40095E-03   128   0.312E-01    0.311E-02
DAV:  26    -0.288529512455E+02   -0.79036E-04   -0.38338E-03   128   0.301E-01    0.356E-02
DAV:  27    -0.288529869454E+02   -0.35700E-04   -0.28274E-03   128   0.266E-01    0.288E-02
DAV:  28    -0.288530229437E+02   -0.35998E-04   -0.20089E-03   128   0.229E-01    0.262E-02
DAV:  29    -0.288529994951E+02    0.23449E-04   -0.21980E-03   128   0.234E-01    0.266E-02
DAV:  30    -0.288530039644E+02   -0.44693E-05   -0.19771E-03   128   0.216E-01    0.208E-02
DAV:  31    -0.288530408448E+02   -0.36880E-04   -0.21006E-03   128   0.226E-01    0.208E-02
DAV:  32    -0.288530399403E+02    0.90454E-06   -0.20886E-03   128   0.215E-01    0.224E-02
DAV:  33    -0.288530828237E+02   -0.42883E-04   -0.15885E-03   128   0.194E-01    0.180E-02
DAV:  34    -0.288531189110E+02   -0.36087E-04   -0.96439E-04   128   0.159E-01    0.132E-02
DAV:  35    -0.288531316738E+02   -0.12763E-04   -0.90842E-04   128   0.142E-01    0.142E-02
DAV:  36    -0.288531250604E+02    0.66134E-05   -0.77951E-04   128   0.130E-01    0.134E-02
DAV:  37    -0.288531428873E+02   -0.17827E-04   -0.74251E-04   128   0.131E-01    0.139E-02
DAV:  38    -0.288531488647E+02   -0.59774E-05   -0.56274E-04   128   0.122E-01    0.101E-02
DAV:  39    -0.288531745785E+02   -0.25714E-04   -0.51378E-04   128   0.110E-01    0.105E-02
DAV:  40    -0.288531860233E+02   -0.11445E-04   -0.43415E-04   128   0.999E-02    0.846E-03
DAV:  41    -0.288531900592E+02   -0.40359E-05   -0.45430E-04   128   0.103E-01    0.993E-03
DAV:  42    -0.288531956805E+02   -0.56213E-05   -0.37792E-04   128   0.950E-02    0.801E-03
DAV:  43    -0.288532060741E+02   -0.10394E-04   -0.38177E-04   128   0.944E-02    0.849E-03
DAV:  44    -0.288532099585E+02   -0.38845E-05   -0.33038E-04   128   0.900E-02    0.690E-03
DAV:  45    -0.288532236555E+02   -0.13697E-04   -0.27001E-04   128   0.830E-02    0.675E-03
DAV:  46    -0.288532340151E+02   -0.10360E-04   -0.20244E-04   128   0.709E-02    0.551E-03
DAV:  47    -0.288532444681E+02   -0.10453E-04   -0.13218E-04   128   0.579E-02    0.446E-03
DAV:  48    -0.288532498882E+02   -0.54201E-05   -0.11719E-04   128   0.546E-02    0.416E-03
DAV:  49    -0.288532466517E+02    0.32365E-05   -0.11491E-04   128   0.531E-02    0.407E-03
DAV:  50    -0.288532511539E+02   -0.45021E-05   -0.93394E-05   128   0.474E-02
  12 F= -.28853251E+02 E0= -.28854000E+02  d E =-.542126E-01  mag=     0.0253    -0.0930    16.0338
 curvature:  -0.08 expect dE=-0.309E-02 dE for cont linesearch -0.177E-06
 trial: gam=14.85426 g(F)=  0.412E-01 g(S)=  0.000E+00 ort =-0.107E-03 (trialstep = 0.160E-01)
 search vector abs. value=  0.110E+01
 bond charge predicted
       N       E                     dE             d eps       ncg     rms          rms(c)
DAV:   1    -0.288534373081E+02   -0.19066E-03   -0.51983E-02   128   0.109E+00    0.179E-01
DAV:   2    -0.288536459123E+02   -0.20860E-03   -0.39610E-03   136   0.542E-01    0.162E-01
DAV:   3    -0.288547362889E+02   -0.10904E-02   -0.28985E-02   128   0.113E+00    0.218E-01
DAV:   4    -0.288547780899E+02   -0.41801E-04   -0.46479E-02   128   0.115E+00    0.133E-01
DAV:   5    -0.288544893384E+02    0.28875E-03   -0.22548E-02   128   0.768E-01    0.115E-01
DAV:   6    -0.288540029705E+02    0.48637E-03   -0.14553E-02   128   0.543E-01    0.891E-02
DAV:   7    -0.288536769745E+02    0.32600E-03   -0.12230E-02   128   0.526E-01    0.624E-02
DAV:   8    -0.288537481305E+02   -0.71156E-04   -0.69104E-03   128   0.418E-01    0.516E-02
DAV:   9    -0.288537410542E+02    0.70763E-05   -0.60873E-03   128   0.379E-01    0.466E-02
DAV:  10    -0.288538955854E+02   -0.15453E-03   -0.68065E-03   128   0.384E-01    0.707E-02
DAV:  11    -0.288541196649E+02   -0.22408E-03   -0.78121E-03   128   0.378E-01    0.850E-02
DAV:  12    -0.288537974905E+02    0.32217E-03   -0.81210E-03   128   0.408E-01    0.603E-02
DAV:  13    -0.288536799768E+02    0.11751E-03   -0.52733E-03   128   0.362E-01    0.396E-02
DAV:  14    -0.288537496528E+02   -0.69676E-04   -0.27885E-03   128   0.269E-01    0.242E-02
DAV:  15    -0.288537645785E+02   -0.14926E-04   -0.17037E-03   128   0.210E-01    0.200E-02
DAV:  16    -0.288537614667E+02    0.31118E-05   -0.13819E-03   128   0.182E-01    0.205E-02
DAV:  17    -0.288537906414E+02   -0.29175E-04   -0.12187E-03   128   0.170E-01    0.157E-02
DAV:  18    -0.288537766048E+02    0.14037E-04   -0.96778E-04   128   0.156E-01    0.155E-02
DAV:  19    -0.288537796932E+02   -0.30884E-05   -0.95959E-04   128   0.144E-01    0.161E-02
DAV:  20    -0.288537995805E+02   -0.19887E-04   -0.78036E-04   128   0.135E-01    0.111E-02
DAV:  21    -0.288538179830E+02   -0.18403E-04   -0.51683E-04   128   0.113E-01    0.113E-02
DAV:  22    -0.288538000871E+02    0.17896E-04   -0.43575E-04   128   0.104E-01    0.101E-02
DAV:  23    -0.288538192314E+02   -0.19144E-04   -0.33575E-04   128   0.917E-02    0.811E-03
DAV:  24    -0.288538313074E+02   -0.12076E-04   -0.30604E-04   128   0.864E-02    0.765E-03
DAV:  25    -0.288538320919E+02   -0.78447E-06   -0.29385E-04   128   0.806E-02    0.817E-03
DAV:  26    -0.288538370255E+02   -0.49336E-05   -0.22374E-04   128   0.715E-02    0.736E-03
DAV:  27    -0.288538472811E+02   -0.10256E-04   -0.15610E-04   128   0.614E-02    0.519E-03
DAV:  28    -0.288538480353E+02   -0.75422E-06   -0.10861E-04   128   0.546E-02    0.426E-03
DAV:  29    -0.288538503262E+02   -0.22908E-05   -0.10475E-04   128   0.521E-02    0.444E-03
DAV:  30    -0.288538566155E+02   -0.62893E-05   -0.96568E-05   128   0.478E-02
  13 F= -.28853857E+02 E0= -.28854734E+02  d E =-.605462E-03  mag=     0.0253    -0.0933    16.0441
 ZBRENT: can't locate minimum, use default step
 trial-energy change:   -0.000605  1 .order   -0.000602   -0.000632   -0.000573
 step:   0.0638(harm=  0.1717)  dis= 0.00845  next Energy=   -28.856649 (dE=-0.340E-02)
 bond charge predicted
       N       E                     dE             d eps       ncg     rms          rms(c)
DAV:   1    -0.288515680801E+02    0.22822E-02   -0.46688E-01   128   0.327E+00    0.528E-01
DAV:   2    -0.288539407859E+02   -0.23727E-02   -0.10374E-02   176   0.133E+00    0.441E-01
DAV:   3    -0.288566712814E+02   -0.27305E-02   -0.38494E-02   160   0.239E+00    0.574E-01
DAV:   4    -0.288561265308E+02    0.54475E-03   -0.64254E-02   128   0.186E+00    0.184E-01
DAV:   5    -0.288572338499E+02   -0.11073E-02   -0.60918E-02   128   0.120E+00    0.201E-01
DAV:   6    -0.288570240813E+02    0.20977E-03   -0.42860E-02   128   0.962E-01    0.205E-01
DAV:   7    -0.288559456880E+02    0.10784E-02   -0.46481E-02   128   0.976E-01    0.146E-01
DAV:   8    -0.288551020703E+02    0.84362E-03   -0.27490E-02   128   0.827E-01    0.843E-02
DAV:   9    -0.288553293280E+02   -0.22726E-03   -0.18438E-02   128   0.654E-01    0.861E-02
DAV:  10    -0.288552611773E+02    0.68151E-04   -0.16448E-02   128   0.594E-01    0.846E-02
DAV:  11    -0.288568981083E+02   -0.16369E-02   -0.19388E-02   128   0.604E-01    0.172E-01
DAV:  12    -0.288552328945E+02    0.16652E-02   -0.21843E-02   128   0.630E-01    0.806E-02
DAV:  13    -0.288551418571E+02    0.91037E-04   -0.13311E-02   128   0.581E-01    0.570E-02
DAV:  14    -0.288551834170E+02   -0.41560E-04   -0.85666E-03   128   0.452E-01    0.554E-02
DAV:  15    -0.288551384972E+02    0.44920E-04   -0.58379E-03   128   0.378E-01    0.333E-02
DAV:  16    -0.288551527616E+02   -0.14264E-04   -0.35171E-03   128   0.298E-01    0.274E-02
DAV:  17    -0.288551691997E+02   -0.16438E-04   -0.31858E-03   128   0.265E-01    0.311E-02
DAV:  18    -0.288551627348E+02    0.64649E-05   -0.28007E-03   128   0.252E-01    0.257E-02
DAV:  19    -0.288551585456E+02    0.41892E-05   -0.21038E-03   128   0.230E-01    0.231E-02
DAV:  20    -0.288551986076E+02   -0.40062E-04   -0.23323E-03   128   0.225E-01    0.265E-02
DAV:  21    -0.288551812610E+02    0.17347E-04   -0.20800E-03   128   0.214E-01    0.226E-02
DAV:  22    -0.288551848099E+02   -0.35489E-05   -0.17825E-03   128   0.203E-01    0.196E-02
DAV:  23    -0.288551921713E+02   -0.73613E-05   -0.14144E-03   128   0.184E-01    0.168E-02
DAV:  24    -0.288552384281E+02   -0.46257E-04   -0.12219E-03   128   0.169E-01    0.167E-02
DAV:  25    -0.288552399223E+02   -0.14942E-05   -0.82139E-04   128   0.143E-01    0.121E-02
DAV:  26    -0.288552485289E+02   -0.86065E-05   -0.66837E-04   128   0.126E-01    0.134E-02
DAV:  27    -0.288552489596E+02   -0.43070E-06   -0.63018E-04   128   0.123E-01    0.129E-02
DAV:  28    -0.288552556948E+02   -0.67352E-05   -0.50730E-04   128   0.113E-01    0.102E-02
DAV:  29    -0.288552645806E+02   -0.88858E-05   -0.38749E-04   128   0.995E-02    0.853E-03
DAV:  30    -0.288552841668E+02   -0.19586E-04   -0.27000E-04   128   0.811E-02    0.630E-03
DAV:  31    -0.288552931967E+02   -0.90298E-05   -0.21967E-04   128   0.744E-02    0.651E-03
DAV:  32    -0.288552912003E+02    0.19963E-05   -0.16859E-04   128   0.659E-02    0.552E-03
DAV:  33    -0.288552924465E+02   -0.12462E-05   -0.16273E-04   128   0.648E-02    0.561E-03
DAV:  34    -0.288552959822E+02   -0.35357E-05   -0.15342E-04   128   0.633E-02    0.469E-03
DAV:  35    -0.288553005818E+02   -0.45996E-05   -0.12152E-04   128   0.572E-02    0.482E-03
DAV:  36    -0.288553082811E+02   -0.76993E-05   -0.12475E-04   128   0.546E-02    0.429E-03
DAV:  37    -0.288553072505E+02    0.10306E-05   -0.11816E-04   128   0.554E-02    0.446E-03
DAV:  38    -0.288553092764E+02   -0.20259E-05   -0.90374E-05   128   0.496E-02
  14 F= -.28855309E+02 E0= -.28856485E+02  d E =-.205812E-02  mag=     0.0251    -0.0934    16.0759
 curvature:  -1.24 expect dE=-0.569E-01 dE for cont linesearch -0.731E-03
 ZBRENT: increasing intervall
 opt :   0.1596  next Energy=   -28.856744 (dE=-0.349E-02)
 bond charge predicted
       N       E                     dE             d eps       ncg     rms          rms(c)
DAV:   1    -0.288421364834E+02    0.13171E-01   -0.18662E+00   128   0.655E+00    0.101E+00
DAV:   2    -0.288533557940E+02   -0.11219E-01   -0.28755E-02   176   0.171E+00    0.660E-01
DAV:   3    -0.288615294155E+02   -0.81736E-02   -0.56897E-02   176   0.338E+00    0.942E-01
DAV:   4    -0.288572123894E+02    0.43170E-02   -0.50547E-02   144   0.245E+00    0.218E-01
DAV:   5    -0.288599421731E+02   -0.27298E-02   -0.57344E-02   128   0.115E+00    0.277E-01
DAV:   6    -0.288571401808E+02    0.28020E-02   -0.48541E-02   128   0.106E+00    0.191E-01
DAV:   7    -0.288570313924E+02    0.10879E-03   -0.25704E-02   128   0.824E-01    0.165E-01
DAV:   8    -0.288578078064E+02   -0.77641E-03   -0.34283E-02   128   0.851E-01    0.186E-01
DAV:   9    -0.288572058871E+02    0.60192E-03   -0.39243E-02   128   0.961E-01    0.177E-01
DAV:  10    -0.288589606465E+02   -0.17548E-02   -0.66897E-02   128   0.118E+00    0.233E-01
DAV:  11    -0.288572209399E+02    0.17397E-02   -0.46037E-02   128   0.109E+00    0.156E-01
DAV:  12    -0.288583670651E+02   -0.11461E-02   -0.51561E-02   128   0.106E+00    0.184E-01
DAV:  13    -0.288572589820E+02    0.11081E-02   -0.34085E-02   128   0.913E-01    0.114E-01
DAV:  14    -0.288569945915E+02    0.26439E-03   -0.25513E-02   128   0.803E-01    0.851E-02
DAV:  15    -0.288571821214E+02   -0.18753E-03   -0.20934E-02   128   0.724E-01    0.837E-02
DAV:  16    -0.288570289735E+02    0.15315E-03   -0.16559E-02   128   0.625E-01    0.617E-02
DAV:  17    -0.288571987935E+02   -0.16982E-03   -0.14613E-02   128   0.593E-01    0.639E-02
DAV:  18    -0.288572188463E+02   -0.20053E-04   -0.11817E-02   128   0.518E-01    0.622E-02
DAV:  19    -0.288572246827E+02   -0.58364E-05   -0.10594E-02   128   0.491E-01    0.593E-02
DAV:  20    -0.288572009249E+02    0.23758E-04   -0.84242E-03   128   0.454E-01    0.442E-02
DAV:  21    -0.288572143480E+02   -0.13423E-04   -0.72201E-03   128   0.417E-01    0.422E-02
DAV:  22    -0.288572049090E+02    0.94390E-05   -0.55877E-03   128   0.362E-01    0.295E-02
DAV:  23    -0.288572415371E+02   -0.36628E-04   -0.37141E-03   128   0.301E-01    0.250E-02
DAV:  24    -0.288572445417E+02   -0.30046E-05   -0.30341E-03   128   0.265E-01    0.261E-02
DAV:  25    -0.288573125722E+02   -0.68031E-04   -0.24834E-03   128   0.233E-01    0.272E-02
DAV:  26    -0.288572855416E+02    0.27031E-04   -0.22102E-03   128   0.216E-01    0.231E-02
DAV:  27    -0.288572745895E+02    0.10952E-04   -0.20214E-03   128   0.208E-01    0.209E-02
DAV:  28    -0.288572857910E+02   -0.11202E-04   -0.15855E-03   128   0.189E-01    0.160E-02
DAV:  29    -0.288572973951E+02   -0.11604E-04   -0.10619E-03   128   0.162E-01    0.141E-02
DAV:  30    -0.288573175720E+02   -0.20177E-04   -0.85760E-04   128   0.141E-01    0.152E-02
DAV:  31    -0.288573226044E+02   -0.50324E-05   -0.77860E-04   128   0.130E-01    0.133E-02
DAV:  32    -0.288573254463E+02   -0.28419E-05   -0.55239E-04   128   0.113E-01    0.106E-02
DAV:  33    -0.288573376495E+02   -0.12203E-04   -0.43003E-04   128   0.990E-02    0.106E-02
DAV:  34    -0.288573476507E+02   -0.10001E-04   -0.34229E-04   128   0.883E-02    0.829E-03
DAV:  35    -0.288573459933E+02    0.16574E-05   -0.32383E-04   128   0.851E-02    0.813E-03
DAV:  36    -0.288573444067E+02    0.15866E-05   -0.29841E-04   128   0.833E-02    0.685E-03
DAV:  37    -0.288573480098E+02   -0.36031E-05   -0.24919E-04   128   0.752E-02    0.681E-03
DAV:  38    -0.288573618730E+02   -0.13863E-04   -0.22026E-04   128   0.720E-02    0.537E-03
DAV:  39    -0.288573656133E+02   -0.37403E-05   -0.18130E-04   128   0.653E-02    0.513E-03
DAV:  40    -0.288573685614E+02   -0.29481E-05   -0.13703E-04   128   0.567E-02    0.463E-03
DAV:  41    -0.288573683069E+02    0.25443E-06   -0.13549E-04   128   0.586E-02    0.437E-03
DAV:  42    -0.288573649455E+02    0.33615E-05   -0.15133E-04   128   0.596E-02    0.452E-03
DAV:  43    -0.288573693483E+02   -0.44028E-05   -0.13005E-04   128   0.558E-02    0.430E-03
DAV:  44    -0.288573756045E+02   -0.62562E-05   -0.11846E-04   128   0.525E-02    0.405E-03
DAV:  45    -0.288573775703E+02   -0.19658E-05   -0.88256E-05   128   0.465E-02
  15 F= -.28857378E+02 E0= -.28858435E+02  d E =-.412642E-02  mag=     0.0255    -0.0937    16.0520
 curvature:  -2.44 expect dE=-0.131E+00 dE for cont linesearch -0.119E-02
 ZBRENT: increasing intervall
 opt :   0.3511  next Energy=   -28.861363 (dE=-0.811E-02)
 bond charge predicted
       N       E                     dE             d eps       ncg     rms          rms(c)
DAV:   1    -0.287999424019E+02    0.57433E-01   -0.74819E+00   128   0.132E+01    0.203E+00
DAV:   2    -0.288442420080E+02   -0.44300E-01   -0.10541E-01   160   0.303E+00    0.113E+00
DAV:   3    -0.288644475278E+02   -0.20206E-01   -0.58718E-02   184   0.436E+00    0.121E+00
DAV:   4    -0.288570923635E+02    0.73552E-02   -0.45375E-02   184   0.319E+00    0.253E-01
DAV:   5    -0.288610195372E+02   -0.39272E-02   -0.55289E-02   136   0.143E+00    0.346E-01
DAV:   6    -0.288604711876E+02    0.54835E-03   -0.88091E-02   128   0.172E+00    0.204E-01
DAV:   7    -0.288620004964E+02   -0.15293E-02   -0.91927E-02   128   0.155E+00    0.235E-01
DAV:   8    -0.288604784039E+02    0.15221E-02   -0.54305E-02   128   0.133E+00    0.148E-01
DAV:   9    -0.288620386196E+02   -0.15602E-02   -0.52481E-02   128   0.116E+00    0.167E-01
DAV:  10    -0.288610269254E+02    0.10117E-02   -0.34606E-02   128   0.991E-01    0.122E-01
DAV:  11    -0.288611502910E+02   -0.12337E-03   -0.27954E-02   128   0.812E-01    0.109E-01
DAV:  12    -0.288607527536E+02    0.39754E-03   -0.17918E-02   128   0.672E-01    0.895E-02
DAV:  13    -0.288607287032E+02    0.24050E-04   -0.13433E-02   128   0.551E-01    0.734E-02
DAV:  14    -0.288606091612E+02    0.11954E-03   -0.10772E-02   128   0.502E-01    0.531E-02
DAV:  15    -0.288607631493E+02   -0.15399E-03   -0.10923E-02   128   0.474E-01    0.643E-02
DAV:  16    -0.288605814878E+02    0.18166E-03   -0.82513E-03   128   0.430E-01    0.487E-02
DAV:  17    -0.288607129492E+02   -0.13146E-03   -0.63519E-03   128   0.383E-01    0.481E-02
DAV:  18    -0.288606872569E+02    0.25692E-04   -0.51660E-03   128   0.342E-01    0.466E-02
DAV:  19    -0.288606694488E+02    0.17808E-04   -0.45407E-03   128   0.307E-01    0.384E-02
DAV:  20    -0.288606492295E+02    0.20219E-04   -0.41279E-03   128   0.296E-01    0.292E-02
DAV:  21    -0.288606407192E+02    0.85103E-05   -0.35539E-03   128   0.283E-01    0.282E-02
DAV:  22    -0.288606789746E+02   -0.38255E-04   -0.28567E-03   128   0.246E-01    0.239E-02
DAV:  23    -0.288606768184E+02    0.21562E-05   -0.18423E-03   128   0.202E-01    0.193E-02
DAV:  24    -0.288606761017E+02    0.71664E-06   -0.14872E-03   128   0.182E-01    0.166E-02
DAV:  25    -0.288606904101E+02   -0.14308E-04   -0.12443E-03   128   0.165E-01    0.147E-02
DAV:  26    -0.288606985147E+02   -0.81046E-05   -0.87632E-04   128   0.145E-01    0.109E-02
DAV:  27    -0.288607073989E+02   -0.88843E-05   -0.70243E-04   128   0.126E-01    0.105E-02
DAV:  28    -0.288607049072E+02    0.24917E-05   -0.67913E-04   128   0.124E-01    0.128E-02
DAV:  29    -0.288607170377E+02   -0.12130E-04   -0.59547E-04   128   0.114E-01    0.115E-02
DAV:  30    -0.288607253956E+02   -0.83579E-05   -0.54030E-04   128   0.108E-01    0.109E-02
DAV:  31    -0.288607279429E+02   -0.25474E-05   -0.44899E-04   128   0.986E-02    0.858E-03
DAV:  32    -0.288607317130E+02   -0.37700E-05   -0.36786E-04   128   0.941E-02    0.842E-03
DAV:  33    -0.288607393121E+02   -0.75991E-05   -0.37358E-04   128   0.921E-02    0.804E-03
DAV:  34    -0.288607463322E+02   -0.70202E-05   -0.37495E-04   128   0.910E-02    0.761E-03
DAV:  35    -0.288607475067E+02   -0.11745E-05   -0.35107E-04   128   0.877E-02    0.734E-03
DAV:  36    -0.288607509760E+02   -0.34693E-05   -0.30074E-04   128   0.827E-02    0.670E-03
DAV:  37    -0.288607584062E+02   -0.74303E-05   -0.22783E-04   128   0.748E-02    0.570E-03
DAV:  38    -0.288607670539E+02   -0.86476E-05   -0.19305E-04   128   0.677E-02    0.520E-03
DAV:  39    -0.288607715164E+02   -0.44626E-05   -0.14557E-04   128   0.587E-02    0.438E-03
DAV:  40    -0.288607740879E+02   -0.25715E-05   -0.12535E-04   128   0.546E-02    0.442E-03
DAV:  41    -0.288607751019E+02   -0.10139E-05   -0.10431E-04   128   0.504E-02    0.412E-03
DAV:  42    -0.288607749561E+02    0.14581E-06   -0.99432E-05   128   0.492E-02
  16 F= -.28860775E+02 E0= -.28861345E+02  d E =-.752380E-02  mag=     0.0263    -0.0943    15.9992
 curvature:  -8.21 expect dE=-0.574E+00 dE for cont linesearch -0.567E-04
 trial: gam= 0.43242 g(F)=  0.699E-01 g(S)=  0.000E+00 ort = 0.276E-02 (trialstep = 0.830E-01)
 search vector abs. value=  0.278E+00
 bond charge predicted
       N       E                     dE             d eps       ncg     rms          rms(c)
DAV:   1    -0.288634940602E+02   -0.27190E-02   -0.35450E-01   128   0.287E+00    0.444E-01
DAV:   2    -0.288655266829E+02   -0.20326E-02   -0.83573E-03   136   0.714E-01    0.247E-01
DAV:   3    -0.288685285502E+02   -0.30019E-02   -0.38951E-02   128   0.110E+00    0.257E-01
DAV:   4    -0.288670206090E+02    0.15079E-02   -0.53219E-02   128   0.124E+00    0.136E-01
DAV:   5    -0.288680014309E+02   -0.98082E-03   -0.37113E-02   128   0.940E-01    0.166E-01
DAV:   6    -0.288664179041E+02    0.15835E-02   -0.20060E-02   128   0.710E-01    0.961E-02
DAV:   7    -0.288669386681E+02   -0.52076E-03   -0.29354E-02   128   0.790E-01    0.109E-01
DAV:   8    -0.288672811276E+02   -0.34246E-03   -0.25095E-02   128   0.741E-01    0.142E-01
DAV:   9    -0.288664274509E+02    0.85368E-03   -0.19741E-02   128   0.673E-01    0.815E-02
DAV:  10    -0.288664266596E+02    0.79134E-06   -0.15395E-02   128   0.606E-01    0.693E-02
DAV:  11    -0.288663813894E+02    0.45270E-04   -0.11735E-02   128   0.511E-01    0.636E-02
DAV:  12    -0.288661638968E+02    0.21749E-03   -0.81963E-03   128   0.437E-01    0.381E-02
DAV:  13    -0.288661712283E+02   -0.73316E-05   -0.53168E-03   128   0.362E-01    0.290E-02
DAV:  14    -0.288661747463E+02   -0.35180E-05   -0.38057E-03   128   0.296E-01    0.307E-02
DAV:  15    -0.288662187136E+02   -0.43967E-04   -0.30936E-03   128   0.258E-01    0.248E-02
DAV:  16    -0.288662159372E+02    0.27763E-05   -0.19701E-03   128   0.210E-01    0.203E-02
DAV:  17    -0.288661875755E+02    0.28362E-04   -0.17089E-03   128   0.192E-01    0.201E-02
DAV:  18    -0.288661931043E+02   -0.55288E-05   -0.15634E-03   128   0.188E-01    0.161E-02
DAV:  19    -0.288662182677E+02   -0.25163E-04   -0.11474E-03   128   0.169E-01    0.142E-02
DAV:  20    -0.288662087131E+02    0.95546E-05   -0.11142E-03   128   0.158E-01    0.161E-02
DAV:  21    -0.288662182904E+02   -0.95773E-05   -0.99610E-04   128   0.145E-01    0.143E-02
DAV:  22    -0.288662396444E+02   -0.21354E-04   -0.60548E-04   128   0.123E-01    0.956E-03
DAV:  23    -0.288662345366E+02    0.51078E-05   -0.47612E-04   128   0.108E-01    0.101E-02
DAV:  24    -0.288662542061E+02   -0.19670E-04   -0.43889E-04   128   0.966E-02    0.875E-03
DAV:  25    -0.288662618829E+02   -0.76768E-05   -0.32147E-04   128   0.877E-02    0.750E-03
DAV:  26    -0.288662661812E+02   -0.42983E-05   -0.25662E-04   128   0.778E-02    0.774E-03
DAV:  27    -0.288662650935E+02    0.10876E-05   -0.22243E-04   128   0.740E-02    0.623E-03
DAV:  28    -0.288662742879E+02   -0.91944E-05   -0.16741E-04   128   0.655E-02    0.596E-03
DAV:  29    -0.288662848672E+02   -0.10579E-04   -0.16258E-04   128   0.606E-02    0.541E-03
DAV:  30    -0.288662895277E+02   -0.46605E-05   -0.12035E-04   128   0.530E-02    0.480E-03
DAV:  31    -0.288662902707E+02   -0.74297E-06   -0.10786E-04   128   0.482E-02    0.468E-03
DAV:  32    -0.288662946119E+02   -0.43412E-05   -0.98143E-05   128   0.483E-02
  17 F= -.28866295E+02 E0= -.28866686E+02  d E =-.551966E-02  mag=     0.0262    -0.0942    15.9931
 ZBRENT: can't locate minimum, use default step
 trial-energy change:   -0.005520  1 .order   -0.005573   -0.005897   -0.005248
 step:   0.3319(harm=  0.7531)  dis= 0.02122  next Energy=   -28.887536 (dE=-0.268E-01)
 bond charge predicted
       N       E                     dE             d eps       ncg     rms          rms(c)
DAV:   1    -0.288538203679E+02    0.12470E-01   -0.31906E+00   128   0.863E+00    0.131E+00
DAV:   2    -0.288729884396E+02   -0.19168E-01   -0.51741E-02   168   0.195E+00    0.709E-01
DAV:   3    -0.288811494582E+02   -0.81610E-02   -0.50332E-02   128   0.189E+00    0.499E-01
DAV:   4    -0.288798890949E+02    0.12604E-02   -0.81169E-02   136   0.201E+00    0.248E-01
DAV:   5    -0.288820909381E+02   -0.22018E-02   -0.84964E-02   128   0.148E+00    0.282E-01
DAV:   6    -0.288797615185E+02    0.23294E-02   -0.69461E-02   128   0.138E+00    0.157E-01
DAV:   7    -0.288816096311E+02   -0.18481E-02   -0.60019E-02   128   0.123E+00    0.240E-01
DAV:   8    -0.288794705232E+02    0.21391E-02   -0.26155E-02   128   0.101E+00    0.106E-01
DAV:   9    -0.288805041526E+02   -0.10336E-02   -0.41929E-02   128   0.950E-01    0.136E-01
DAV:  10    -0.288794414403E+02    0.10627E-02   -0.23800E-02   128   0.768E-01    0.946E-02
DAV:  11    -0.288793747883E+02    0.66652E-04   -0.14275E-02   128   0.579E-01    0.813E-02
DAV:  12    -0.288791197188E+02    0.25507E-03   -0.10427E-02   128   0.488E-01    0.564E-02
DAV:  13    -0.288790060420E+02    0.11368E-03   -0.66138E-03   128   0.395E-01    0.388E-02
DAV:  14    -0.288790492843E+02   -0.43242E-04   -0.49711E-03   128   0.343E-01    0.311E-02
DAV:  15    -0.288790607001E+02   -0.11416E-04   -0.50826E-03   128   0.332E-01    0.393E-02
DAV:  16    -0.288790248319E+02    0.35868E-04   -0.40466E-03   128   0.304E-01    0.307E-02
DAV:  17    -0.288790550542E+02   -0.30222E-04   -0.32007E-03   128   0.278E-01    0.275E-02
DAV:  18    -0.288790531466E+02    0.19076E-05   -0.29220E-03   128   0.259E-01    0.280E-02
DAV:  19    -0.288790831772E+02   -0.30031E-04   -0.25568E-03   128   0.230E-01    0.249E-02
DAV:  20    -0.288790792951E+02    0.38821E-05   -0.19936E-03   128   0.210E-01    0.202E-02
DAV:  21    -0.288791031488E+02   -0.23854E-04   -0.18171E-03   128   0.201E-01    0.193E-02
DAV:  22    -0.288791246531E+02   -0.21504E-04   -0.16281E-03   128   0.182E-01    0.181E-02
DAV:  23    -0.288791272749E+02   -0.26218E-05   -0.97919E-04   128   0.151E-01    0.143E-02
DAV:  24    -0.288791297576E+02   -0.24827E-05   -0.78093E-04   128   0.135E-01    0.114E-02
DAV:  25    -0.288791423237E+02   -0.12566E-04   -0.60634E-04   128   0.120E-01    0.106E-02
DAV:  26    -0.288791623767E+02   -0.20053E-04   -0.50145E-04   128   0.104E-01    0.971E-03
DAV:  27    -0.288791667512E+02   -0.43745E-05   -0.32346E-04   128   0.876E-02    0.799E-03
DAV:  28    -0.288791755560E+02   -0.88048E-05   -0.25925E-04   128   0.775E-02    0.704E-03
DAV:  29    -0.288791756071E+02   -0.51126E-07   -0.26069E-04   128   0.740E-02    0.743E-03
DAV:  30    -0.288791840596E+02   -0.84525E-05   -0.21799E-04   128   0.666E-02    0.669E-03
DAV:  31    -0.288791813740E+02    0.26856E-05   -0.19686E-04   128   0.672E-02    0.594E-03
DAV:  32    -0.288791859405E+02   -0.45665E-05   -0.17293E-04   128   0.626E-02    0.493E-03
DAV:  33    -0.288791971684E+02   -0.11228E-04   -0.13709E-04   128   0.562E-02    0.445E-03
DAV:  34    -0.288792043189E+02   -0.71505E-05   -0.86376E-05   128   0.457E-02
  18 F= -.28879204E+02 E0= -.28879344E+02  d E =-.184294E-01  mag=     0.0261    -0.0942    15.9920
 curvature:  -0.89 expect dE=-0.295E-01 dE for cont linesearch -0.586E-02
 ZBRENT: increasing intervall
 opt :   0.8298  next Energy=   -28.890301 (dE=-0.295E-01)
 bond charge predicted
       N       E                     dE             d eps       ncg     rms          rms(c)
DAV:   1    -0.287873945453E+02    0.91803E-01   -0.12785E+01   128   0.174E+01    0.265E+00
DAV:   2    -0.288669154385E+02   -0.79521E-01   -0.21151E-01   176   0.388E+00    0.149E+00
DAV:   3    -0.288927007032E+02   -0.25785E-01   -0.69161E-02   184   0.339E+00    0.947E-01
DAV:   4    -0.288901797215E+02    0.25210E-02   -0.87340E-02   160   0.334E+00    0.496E-01
DAV:   5    -0.288929286471E+02   -0.27489E-02   -0.92496E-02   128   0.197E+00    0.403E-01
DAV:   6    -0.288927889200E+02    0.13973E-03   -0.10093E-01   128   0.189E+00    0.288E-01
DAV:   7    -0.288941054711E+02   -0.13166E-02   -0.93626E-02   128   0.153E+00    0.328E-01
DAV:   8    -0.288912996768E+02    0.28058E-02   -0.54541E-02   128   0.136E+00    0.129E-01
DAV:   9    -0.288933873209E+02   -0.20876E-02   -0.71596E-02   128   0.128E+00    0.184E-01
DAV:  10    -0.288915276145E+02    0.18597E-02   -0.39139E-02   128   0.105E+00    0.115E-01
DAV:  11    -0.288917587852E+02   -0.23117E-03   -0.26101E-02   128   0.793E-01    0.116E-01
DAV:  12    -0.288917380523E+02    0.20733E-04   -0.19728E-02   128   0.659E-01    0.118E-01
DAV:  13    -0.288910209381E+02    0.71711E-03   -0.15962E-02   128   0.575E-01    0.728E-02
DAV:  14    -0.288909784857E+02    0.42452E-04   -0.88833E-03   128   0.472E-01    0.537E-02
DAV:  15    -0.288909253416E+02    0.53144E-04   -0.59002E-03   128   0.371E-01    0.418E-02
DAV:  16    -0.288909478938E+02   -0.22552E-04   -0.55337E-03   128   0.345E-01    0.400E-02
DAV:  17    -0.288909252567E+02    0.22637E-04   -0.48903E-03   128   0.336E-01    0.390E-02
DAV:  18    -0.288909471564E+02   -0.21900E-04   -0.43361E-03   128   0.306E-01    0.311E-02
DAV:  19    -0.288909574909E+02   -0.10334E-04   -0.45110E-03   128   0.320E-01    0.332E-02
DAV:  20    -0.288909507802E+02    0.67107E-05   -0.35227E-03   128   0.280E-01    0.253E-02
DAV:  21    -0.288910332542E+02   -0.82474E-04   -0.30563E-03   128   0.262E-01    0.289E-02
DAV:  22    -0.288910274995E+02    0.57547E-05   -0.22700E-03   128   0.219E-01    0.256E-02
DAV:  23    -0.288910318264E+02   -0.43269E-05   -0.16091E-03   128   0.198E-01    0.152E-02
DAV:  24    -0.288910796975E+02   -0.47871E-04   -0.10489E-03   128   0.159E-01    0.131E-02
DAV:  25    -0.288910996632E+02   -0.19966E-04   -0.79390E-04   128   0.135E-01    0.119E-02
DAV:  26    -0.288910928923E+02    0.67709E-05   -0.67780E-04   128   0.127E-01    0.110E-02
DAV:  27    -0.288911245576E+02   -0.31665E-04   -0.57730E-04   128   0.115E-01    0.115E-02
DAV:  28    -0.288911259772E+02   -0.14195E-05   -0.49127E-04   128   0.104E-01    0.109E-02
DAV:  29    -0.288911246477E+02    0.13294E-05   -0.49925E-04   128   0.103E-01    0.957E-03
DAV:  30    -0.288911293262E+02   -0.46785E-05   -0.40494E-04   128   0.970E-02    0.837E-03
DAV:  31    -0.288911439652E+02   -0.14639E-04   -0.34319E-04   128   0.896E-02    0.800E-03
DAV:  32    -0.288911490334E+02   -0.50682E-05   -0.23633E-04   128   0.768E-02    0.635E-03
DAV:  33    -0.288911485218E+02    0.51163E-06   -0.24944E-04   128   0.755E-02    0.623E-03
DAV:  34    -0.288911580596E+02   -0.95379E-05   -0.20590E-04   128   0.692E-02    0.536E-03
DAV:  35    -0.288911614131E+02   -0.33535E-05   -0.15350E-04   128   0.608E-02    0.488E-03
DAV:  36    -0.288911592551E+02    0.21579E-05   -0.14929E-04   128   0.602E-02    0.492E-03
DAV:  37    -0.288911717554E+02   -0.12500E-04   -0.11566E-04   128   0.515E-02    0.426E-03
DAV:  38    -0.288911696813E+02    0.20741E-05   -0.10660E-04   128   0.493E-02    0.445E-03
DAV:  39    -0.288911714434E+02   -0.17621E-05   -0.93531E-05   128   0.463E-02
  19 F= -.28891171E+02 E0= -.28891498E+02  d E =-.303965E-01  mag=     0.0263    -0.0938    15.9996
 curvature:  -1.69 expect dE=-0.178E-01 dE for cont linesearch -0.304E-03
 ZBRENT: extrapolating
 opt :   0.9285  next Energy=   -28.891521 (dE=-0.307E-01)
 bond charge predicted
       N       E                     dE             d eps       ncg     rms          rms(c)
DAV:   1    -0.288875561124E+02    0.36136E-02   -0.50162E-01   128   0.341E+00    0.515E-01
DAV:   2    -0.288905106039E+02   -0.29545E-02   -0.89663E-03   144   0.729E-01    0.272E-01
DAV:   3    -0.288929691329E+02   -0.24585E-02   -0.33819E-02   128   0.115E+00    0.310E-01
DAV:   4    -0.288913414457E+02    0.16277E-02   -0.30195E-02   128   0.111E+00    0.923E-02
DAV:   5    -0.288933913552E+02   -0.20499E-02   -0.32907E-02   128   0.831E-01    0.177E-01
DAV:   6    -0.288917616904E+02    0.16297E-02   -0.20781E-02   128   0.716E-01    0.102E-01
DAV:   7    -0.288923569346E+02   -0.59524E-03   -0.36129E-02   128   0.859E-01    0.124E-01
DAV:   8    -0.288923105979E+02    0.46337E-04   -0.24207E-02   128   0.743E-01    0.137E-01
DAV:   9    -0.288916431612E+02    0.66744E-03   -0.20554E-02   128   0.675E-01    0.831E-02
DAV:  10    -0.288914172831E+02    0.22588E-03   -0.22021E-02   128   0.706E-01    0.693E-02
DAV:  11    -0.288913586232E+02    0.58660E-04   -0.11083E-02   128   0.522E-01    0.540E-02
DAV:  12    -0.288912734785E+02    0.85145E-04   -0.77503E-03   128   0.429E-01    0.387E-02
DAV:  13    -0.288912724259E+02    0.10526E-05   -0.43379E-03   128   0.332E-01    0.262E-02
DAV:  14    -0.288913067394E+02   -0.34314E-04   -0.28837E-03   128   0.253E-01    0.255E-02
DAV:  15    -0.288913213113E+02   -0.14572E-04   -0.21457E-03   128   0.217E-01    0.195E-02
DAV:  16    -0.288913498141E+02   -0.28503E-04   -0.13829E-03   128   0.178E-01    0.177E-02
DAV:  17    -0.288913405088E+02    0.93053E-05   -0.11655E-03   128   0.154E-01    0.166E-02
DAV:  18    -0.288913301017E+02    0.10407E-04   -0.12458E-03   128   0.161E-01    0.170E-02
DAV:  19    -0.288913401480E+02   -0.10046E-04   -0.83729E-04   128   0.142E-01    0.139E-02
DAV:  20    -0.288913432427E+02   -0.30947E-05   -0.53569E-04   128   0.118E-01    0.114E-02
DAV:  21    -0.288913631896E+02   -0.19947E-04   -0.48693E-04   128   0.108E-01    0.103E-02
DAV:  22    -0.288913827065E+02   -0.19517E-04   -0.36184E-04   128   0.922E-02    0.778E-03
DAV:  23    -0.288913861022E+02   -0.33957E-05   -0.34126E-04   128   0.857E-02    0.823E-03
DAV:  24    -0.288913756587E+02    0.10444E-04   -0.35143E-04   128   0.874E-02    0.799E-03
DAV:  25    -0.288913926429E+02   -0.16984E-04   -0.27311E-04   128   0.790E-02    0.664E-03
DAV:  26    -0.288913999944E+02   -0.73515E-05   -0.25517E-04   128   0.753E-02    0.620E-03
DAV:  27    -0.288913988453E+02    0.11492E-05   -0.17744E-04   128   0.656E-02    0.454E-03
DAV:  28    -0.288914000918E+02   -0.12465E-05   -0.15107E-04   128   0.612E-02    0.533E-03
DAV:  29    -0.288914126560E+02   -0.12564E-04   -0.11881E-04   128   0.533E-02    0.458E-03
DAV:  30    -0.288914170419E+02   -0.43859E-05   -0.77089E-05   128   0.461E-02
  20 F= -.28891417E+02 E0= -.28891750E+02  d E =-.306421E-01  mag=     0.0262    -0.0940    15.9999
 curvature:  -1.94 expect dE=-0.192E-01 dE for cont linesearch -0.314E-07
 trial: gam= 0.00050 g(F)=  0.992E-02 g(S)=  0.000E+00 ort =-0.671E-04 (trialstep = 0.252E+00)
 search vector abs. value=  0.992E-02
 writing wavefunctions
sjob
