 vasp.5.3.2 13Sep12 (build Sep  9 2014 11:37:56) complex                        
  
 executed on             LinuxIFC date 2014.11.16  14:41:37
 running on   16 total cores
 distrk:  each k-point on   16 cores,    1 groups
 distr:  one band on NCORES_PER_BAND=   8 cores,    2 groups


--------------------------------------------------------------------------------------------------------


 INCAR:
 POTCAR:    PAW_PBE Fe 06Sep2000                  
 POTCAR:    PAW_PBE Fe 06Sep2000                  
   VRHFIN =Fe:  d7 s1                                                           
   LEXCH  = PE                                                                  
   EATOM  =   594.3153 eV,   43.6809 Ry                                         
                                                                                
   TITEL  = PAW_PBE Fe 06Sep2000                                                
   LULTRA =        F    use ultrasoft PP ?                                      
   IUNSCR =        1    unscreen: 0-lin 1-nonlin 2-no                           
   RPACOR =    2.000    partial core radius                                     
   POMASS =   55.847; ZVAL   =    8.000    mass and valenz                      
   RCORE  =    2.300    outmost cutoff radius                                   
   RWIGS  =    2.460; RWIGS  =    1.302    wigner-seitz radius (au A)           
   ENMAX  =  267.882; ENMIN  =  200.911 eV                                      
   RCLOC  =    1.701    cutoff for local pot                                    
   LCOR   =        T    correct aug charges                                     
   LPAW   =        T    paw PP                                                  
   EAUG   =  511.368                                                            
   DEXC   =    0.000                                                            
   RMAX   =    2.356    core radius for proj-oper                               
   RAUG   =    1.300    factor for augmentation sphere                          
   RDEP   =    2.442    radius for radial grids                                 
   RDEPT  =    1.890    core radius for aug-charge                              
                                                                                
   Atomic configuration                                                         
    9 entries                                                                   
     n  l   j            E        occ.                                          
     1  0  0.50     -6993.8440   2.0000                                         
     2  0  0.50      -814.6047   2.0000                                         
     2  1  1.50      -693.3689   6.0000                                         
     3  0  0.50       -89.4732   2.0000                                         
     3  1  1.50       -55.6373   6.0000                                         
     3  2  2.50        -3.8151   7.0000                                         
     4  0  0.50        -4.2551   1.0000                                         
     4  1  1.50        -3.4015   0.0000                                         
     4  3  2.50        -1.3606   0.0000                                         
   Description                                                                  
     l       E           TYP  RCUT    TYP  RCUT                                 
     2     -3.8151135     23  2.300                                             
     2     -5.1756961     23  2.300                                             
     0     -4.2550963     23  2.300                                             
     0      7.2035603     23  2.300                                             
     1     -2.7211652     23  2.300                                             
     1     18.4316424     23  2.300                                             
  local pseudopotential read in
  partial core-charges read in
  partial kinetic energy density read in
  atomic valenz-charges read in
  non local Contribution for L=           2  read in
    real space projection operators read in
  non local Contribution for L=           2  read in
    real space projection operators read in
  non local Contribution for L=           0  read in
    real space projection operators read in
  non local Contribution for L=           0  read in
    real space projection operators read in
  non local Contribution for L=           1  read in
    real space projection operators read in
  non local Contribution for L=           1  read in
    real space projection operators read in
    PAW grid and wavefunctions read in
 
   number of l-projection  operators is LMAX  =           6
   number of lm-projection operators is LMMAX =          18
 
  PAW_PBE Fe 06Sep2000                  :
 energy of atom  1       EATOM= -594.3153
 kinetic energy error for atom=    0.0205 (will be added to EATOM!!)
 
 
 POSCAR: New structure                           
  positions in direct lattice
  No initial velocities read in
 exchange correlation table for  LEXCH =        8
   RHO(1)=    0.500       N(1)  =     2000
   RHO(2)=  100.500       N(2)  =     4000
 


--------------------------------------------------------------------------------------------------------


 ion  position               nearest neighbor table
   1  0.500  0.500  0.673-   4 2.33   3 2.33   5 2.33
   2  0.500  0.500  0.327-   4 2.33   3 2.33   5 2.33
   3  0.561  0.606  0.500-   4 2.33   2 2.33   1 2.33   5 2.33
   4  0.561  0.394  0.500-   3 2.33   2 2.33   1 2.33   5 2.33
   5  0.378  0.500  0.500-   4 2.33   3 2.33   2 2.33   1 2.33
 

IMPORTANT INFORMATION: All symmetrisations will be switched off!
NOSYMM: (Re-)initialisation of all symmetry stuff for point group C_1.

 
 
 KPOINTS: Gamma                                   

Automatic generation of k-mesh.
Space group operators:
 irot       det(A)        alpha          n_x          n_y          n_z        tau_x        tau_y        tau_z
    1     1.000000     0.000000     1.000000     0.000000     0.000000     0.000000     0.000000     0.000000
 
 Subroutine IBZKPT returns following result:
 ===========================================
 
 Found      1 irreducible k-points:
 
 Following reciprocal coordinates:
            Coordinates               Weight
  0.000000  0.000000  0.000000      1.000000
 
 Following cartesian coordinates:
            Coordinates               Weight
  0.000000  0.000000  0.000000      1.000000
 


--------------------------------------------------------------------------------------------------------




 Dimension of arrays:
   k-points           NKPTS =      1   k-points in BZ     NKDIM =      1   number of bands    NBANDS=     64
   number of dos      NEDOS =    301   number of ions     NIONS =      5
   non local maximal  LDIM  =      6   non local SUM 2l+1 LMDIM =     18
   total plane-waves  NPLWV = ******
   max r-space proj   IRMAX =      1   max aug-charges    IRDMAX=  46441
   dimension x,y,z NGX =   120 NGY =  120 NGZ =  120
   dimension x,y,z NGXF=   240 NGYF=  240 NGZF=  240
   support grid    NGXF=   240 NGYF=  240 NGZF=  240
   ions per type =               5
 NGX,Y,Z   is equivalent  to a cutoff of  18.14, 18.14, 18.14 a.u.
 NGXF,Y,Z  is equivalent  to a cutoff of  36.27, 36.27, 36.27 a.u.


 I would recommend the setting:
   dimension x,y,z NGX =    67 NGY =   67 NGZ =   67
 SYSTEM =  LIO                                     
 POSCAR =  New structure                           

 Startparameter for this run:
   NWRITE =      2    write-flag & timer
   PREC   = accura    normal or accurate (medium, high low for compatibility)
   ISTART =      0    job   : 0-new  1-cont  2-samecut
   ICHARG =      2    charge: 1-file 2-atom 10-const
   ISPIN  =      1    spin polarized calculation?
   LNONCOLLINEAR =      T non collinear calculations
   LSORBIT =      F    spin-orbit coupling
   INIWAV =      1    electr: 0-lowe 1-rand  2-diag
   LASPH  =      T    aspherical Exc in radial PAW
   METAGGA=      F    non-selfconsistent MetaGGA calc.

 Electronic Relaxation 1
   ENCUT  =  350.0 eV  25.72 Ry    5.07 a.u.  16.78 16.78 16.78*2*pi/ulx,y,z
   ENINI  =  350.0     initial cutoff
   ENAUG  = 1000.0 eV  augmentation charge cutoff
   NELM   =     60;   NELMIN=  2; NELMDL= -5     # of ELM steps 
   EDIFF  = 0.1E-04   stopping-criterion for ELM
   LREAL  =      F    real-space projection
   NLSPLINE    = F    spline interpolate recip. space projectors
   LCOMPAT=      F    compatible to vasp.4.4
   GGA_COMPAT  = T    GGA compatible to vasp.4.4-vasp.4.6
   LMAXPAW     = -100 max onsite density
   LMAXMIX     =    4 max onsite mixed and CHGCAR
   VOSKOWN=      0    Vosko Wilk Nusair interpolation
   ROPT   =    0.00000
 Ionic relaxation
   EDIFFG = -.3E-04   stopping-criterion for IOM
   NSW    =     20    number of steps for IOM
   NBLOCK =      1;   KBLOCK =     20    inner block; outer block 
   IBRION =      2    ionic relax: 0-MD 1-quasi-New 2-CG
   NFREE  =      1    steps in history (QN), initial steepest desc. (CG)
   ISIF   =      2    stress and relaxation
   IWAVPR =     11    prediction:  0-non 1-charg 2-wave 3-comb
   ISYM   =      0    0-nonsym 1-usesym 2-fastsym
   LCORR  =      T    Harris-Foulkes like correction to forces

   POTIM  = 0.5000    time-step for ionic-motion
   TEIN   =    0.0    initial temperature
   TEBEG  =    0.0;   TEEND  =   0.0 temperature during run
   SMASS  =  -3.00    Nose mass-parameter (am)
   estimated Nose-frequenzy (Omega)   =  0.10E-29 period in steps =****** mass=  -0.277E-26a.u.
   SCALEE = 1.0000    scale energy and forces
   NPACO  =    256;   APACO  = 16.0  distance and # of slots for P.C.
   PSTRESS=    0.0 pullay stress

  Mass of Ions in am
   POMASS =  55.85
  Ionic Valenz
   ZVAL   =   8.00
  Atomic Wigner-Seitz radii
   RWIGS  =  -1.00
  virtual crystal weights 
   VCA    =   1.00
   NELECT =      40.0000    total number of electrons
   NUPDOWN=      -1.0000    fix difference up-down

 DOS related values:
   EMIN   =  10.00;   EMAX   =-10.00  energy-range for DOS
   EFERMI =   0.00
   ISMEAR =     2;   SIGMA  =   0.05  broadening in eV -4-tet -1-fermi 0-gaus

 Electronic relaxation 2 (details)
   IALGO  =     38    algorithm
   LDIAG  =      T    sub-space diagonalisation (order eigenvalues)
   LSUBROT=      T    optimize rotation matrix (better conditioning)
   TURBO    =      0    0=normal 1=particle mesh
   IRESTART =      0    0=no restart 2=restart with 2 vectors
   NREBOOT  =      0    no. of reboots
   NMIN     =      0    reboot dimension
   EREF     =   0.00    reference energy to select bands
   IMIX   =      4    mixing-type and parameters
     AMIX     =   0.40;   BMIX     =  1.00
     AMIX_MAG =   1.60;   BMIX_MAG =  1.00
     AMIN     =   0.10
     WC   =   100.;   INIMIX=   1;  MIXPRE=   1;  MAXMIX= -45

 Intra band minimization:
   WEIMIN = 0.0010     energy-eigenvalue tresh-hold
   EBREAK =  0.12E-07  absolut break condition
   DEPER  =   0.30     relativ break condition  

   TIME   =   0.40     timestep for ELM

  volume/ion in A,a.u.               =     266.20      1796.41
  Fermi-wavevector in a.u.,A,eV,Ry     =   0.508982  0.961836  3.524757  0.259062
  Thomas-Fermi vector in A             =   1.521265
 
 Write flags
   LWAVE  =      T    write WAVECAR
   LCHARG =      T    write CHGCAR
   LVTOT  =      F    write LOCPOT, total local potential
   LVHAR  =      F    write LOCPOT, Hartree potential only
   LELF   =      F    write electronic localiz. function (ELF)
   LORBIT =     11    0 simple, 1 ext, 2 COOP (PROOUT)


 Dipole corrections
   LMONO  =      F    monopole corrections only (constant potential shift)
   LDIPOL =      F    correct potential (dipole corrections)
   IDIPOL =      0    1-x, 2-y, 3-z, 4-all directions 
   EPSILON=  1.0000000 bulk dielectric constant

 Exchange correlation treatment:
   GGA     =    --    GGA type
   LEXCH   =     8    internal setting for exchange type
   VOSKOWN=      0    Vosko Wilk Nusair interpolation
   LHFCALC =     F    Hartree Fock is set to
   LHFONE  =     F    Hartree Fock one center treatment
   AEXX    =    0.0000 exact exchange contribution

 Linear response parameters
   LEPSILON=     F    determine dielectric tensor
   LRPA    =     F    only Hartree local field effects (RPA)
   LNABLA  =     F    use nabla operator in PAW spheres
   LVEL    =     F    velocity operator in full k-point grid
   LINTERFAST=   F  fast interpolation
   KINTER  =     0    interpolate to denser k-point grid
   CSHIFT  =0.1000    complex shift for real part using Kramers Kronig
   OMEGAMAX=  -1.0    maximum frequency
   DEG_THRESHOLD= 0.2000000E-02 threshold for treating states as degnerate
   RTIME   =    0.100 relaxation time in fs

 Orbital magnetization related:
   ORBITALMAG=     F  switch on orbital magnetization
   LCHIMAG   =     F  perturbation theory with respect to B field
   DQ        =  0.001000  dq finite difference perturbation B field



--------------------------------------------------------------------------------------------------------


 conjugate gradient relaxation of ions
 charge density and potential will be updated during run
 non collinear spin polarized calculation
 Variant of blocked Davidson
 Davidson routine will perform the subspace rotation
 perform sub-space diagonalisation
    after iterative eigenvector-optimisation
 modified Broyden-mixing scheme, WC =      100.0
 initial mixing is a Kerker type mixing with AMIX =  0.4000 and BMIX =      1.0000
 Hartree-type preconditioning will be used
 using additional bands           44
 reciprocal scheme for non local part
 use partial core corrections
 calculate Harris-corrections to forces 
   (improved forces if not selfconsistent)
 use gradient corrections 
 use of overlap-Matrix (Vanderbilt PP)
 Methfessel and Paxton  Order N= 2 SIGMA  =   0.05


--------------------------------------------------------------------------------------------------------


  energy-cutoff  :      350.00
  volume of cell :     1331.00
      direct lattice vectors                 reciprocal lattice vectors
    11.000000000  0.000000000  0.000000000     0.090909091  0.000000000  0.000000000
     0.000000000 11.000000000  0.000000000     0.000000000  0.090909091  0.000000000
     0.000000000  0.000000000 11.000000000     0.000000000  0.000000000  0.090909091

  length of vectors
    11.000000000 11.000000000 11.000000000     0.090909091  0.090909091  0.090909091


 
 k-points in units of 2pi/SCALE and weight: Gamma                                   
   0.00000000  0.00000000  0.00000000       1.000
 
 k-points in reciprocal lattice and weights: Gamma                                   
   0.00000000  0.00000000  0.00000000       1.000
 
 position of ions in fractional coordinates (direct lattice) 
   0.50000000  0.50000000  0.67294902
   0.50000000  0.50000000  0.32705101
   0.56114638  0.60590911  0.50000000
   0.56114638  0.39409092  0.50000000
   0.37770599  0.50000000  0.50000000
 
 position of ions in cartesian coordinates  (Angst):
   5.50000000  5.50000000  7.40243918
   5.50000000  5.50000000  3.59756115
   6.17261017  6.66500020  5.50000000
   6.17261017  4.33500013  5.50000000
   4.15476590  5.50000000  5.50000000
 
 Euler angles ALPHA=     0.0000000  BETA=     0.0000000

 transformation matrix from SAXIS to cartesian coordinates
 ---------------------------------------------------------
     1.0000000 m_x     0.0000000 m_y     0.0000000 m_z
     0.0000000 m_x     1.0000000 m_y     0.0000000 m_z
     0.0000000 m_x     0.0000000 m_y     1.0000000 m_z

 transformation matrix from cartesian coordinates to SAXIS
 ---------------------------------------------------------
     1.0000000 m_x     0.0000000 m_y     0.0000000 m_z
     0.0000000 m_x     1.0000000 m_y     0.0000000 m_z
     0.0000000 m_x     0.0000000 m_y     1.0000000 m_z




--------------------------------------------------------------------------------------------------------


 k-point  1 :   0.0000 0.0000 0.0000  plane waves:   39674

 maximum and minimum number of plane-waves per node :      4972     4942

 maximum number of plane-waves:     39674
 maximum index in each direction: 
   IXMAX=   16   IYMAX=   16   IZMAX=   16
   IXMIN=  -16   IYMIN=  -16   IZMIN=  -16

 NGX is ok and might be reduce to  66
 NGY is ok and might be reduce to  66
 NGZ is ok and might be reduce to  66

 parallel 3D FFT for wavefunctions:
    minimum data exchange during FFTs selected (reduces bandwidth)
 parallel 3D FFT for charge:
    minimum data exchange during FFTs selected (reduces bandwidth)


 total amount of memory used by VASP on root node   319322. kBytes
========================================================================

   base      :      30000. kBytes
   nonl-proj :        555. kBytes
   fftplans  :      64964. kBytes
   grid      :     221184. kBytes
   one-center:         62. kBytes
   wavefun   :       2557. kBytes
 
 Broyden mixing: mesh for mixing (old mesh)
   NGX = 33   NGY = 33   NGZ = 33
  (NGX  =240   NGY  =240   NGZ  =240)
  gives a total of  35937 points

 initial charge density was supplied:
 charge density of overlapping atoms calculated
 number of electron      40.0000000 magnetization       0.0000000      0.0000000     15.0000000
 keeping initial charge density in first step


--------------------------------------------------------------------------------------------------------


 Maximum index for augmentation-charges         2715 (set IRDMAX)


--------------------------------------------------------------------------------------------------------


 First call to EWALD:  gamma=   0.161
 Maximum number of real-space cells 3x 3x 3
 Maximum number of reciprocal cells 3x 3x 3

 FEWALD executed in parallel
    FEWALD:  cpu time    0.00: real time    0.00


----------------------------------------- Iteration    1(   1)  ---------------------------------------


    POTLOK:  cpu time    6.89: real time    6.90
    SETDIJ:  cpu time    0.84: real time    0.85
     EDDAV:  cpu time    4.94: real time    4.98
       DOS:  cpu time    0.00: real time    0.00
    --------------------------------------------
      LOOP:  cpu time   12.68: real time   12.75

 eigenvalue-minimisations  :   128
 total energy-change (2. order) : 0.1990829E+03  (-0.7736024E+03)
 number of electron      40.0000000 magnetization       0.0000000      0.0000000     15.0000000
 augmentation part       40.0000000 magnetization       0.0000000      0.0000000     15.0000000

 Free energy of the ion-electron system (eV)
  ---------------------------------------------------
  alpha Z        PSCENC =        12.98155071
  Ewald energy   TEWEN  =       926.32851770
  -1/2 Hartree   DENC   =     -3693.39407330
  -exchange  EXHF       =         0.00000000
  -V(xc)+E(xc)   XCENC  =        17.57648478
  PAW double counting   =      2768.79633427    -2807.42643554
  entropy T*S    EENTRO =         0.00586391
  eigenvalues    EBANDS =         2.74054053
  atomic energy  EATOM  =      2971.47414053
  ---------------------------------------------------
  free energy    TOTEN  =       199.08292358 eV

  energy without entropy =      199.07705968  energy(sigma->0) =      199.08145761


--------------------------------------------------------------------------------------------------------




----------------------------------------- Iteration    1(   2)  ---------------------------------------


     EDDAV:  cpu time    5.17: real time    5.19
       DOS:  cpu time    0.00: real time    0.00
    --------------------------------------------
      LOOP:  cpu time    5.17: real time    5.20

 eigenvalue-minimisations  :   128
 total energy-change (2. order) :-0.1826085E+03  (-0.1605594E+03)
 number of electron      40.0000000 magnetization       0.0000000      0.0000000     15.0000000
 augmentation part       40.0000000 magnetization       0.0000000      0.0000000     15.0000000

 Free energy of the ion-electron system (eV)
  ---------------------------------------------------
  alpha Z        PSCENC =        12.98155071
  Ewald energy   TEWEN  =       926.32851770
  -1/2 Hartree   DENC   =     -3693.39407330
  -exchange  EXHF       =         0.00000000
  -V(xc)+E(xc)   XCENC  =        17.57648478
  PAW double counting   =      2768.79633427    -2807.42643554
  entropy T*S    EENTRO =         0.00090367
  eigenvalues    EBANDS =      -179.86302905
  atomic energy  EATOM  =      2971.47414053
  ---------------------------------------------------
  free energy    TOTEN  =        16.47439376 eV

  energy without entropy =       16.47349009  energy(sigma->0) =       16.47416784


--------------------------------------------------------------------------------------------------------




----------------------------------------- Iteration    1(   3)  ---------------------------------------


     EDDAV:  cpu time    6.67: real time    6.68
       DOS:  cpu time    0.00: real time    0.00
    --------------------------------------------
      LOOP:  cpu time    6.67: real time    6.68

 eigenvalue-minimisations  :   176
 total energy-change (2. order) :-0.4236777E+02  (-0.3774597E+02)
 number of electron      40.0000000 magnetization       0.0000000      0.0000000     15.0000000
 augmentation part       40.0000000 magnetization       0.0000000      0.0000000     15.0000000

 Free energy of the ion-electron system (eV)
  ---------------------------------------------------
  alpha Z        PSCENC =        12.98155071
  Ewald energy   TEWEN  =       926.32851770
  -1/2 Hartree   DENC   =     -3693.39407330
  -exchange  EXHF       =         0.00000000
  -V(xc)+E(xc)   XCENC  =        17.57648478
  PAW double counting   =      2768.79633427    -2807.42643554
  entropy T*S    EENTRO =         0.00050006
  eigenvalues    EBANDS =      -222.23039354
  atomic energy  EATOM  =      2971.47414053
  ---------------------------------------------------
  free energy    TOTEN  =       -25.89337434 eV

  energy without entropy =      -25.89387439  energy(sigma->0) =      -25.89349935


--------------------------------------------------------------------------------------------------------




----------------------------------------- Iteration    1(   4)  ---------------------------------------


     EDDAV:  cpu time    6.75: real time    6.76
       DOS:  cpu time    0.00: real time    0.00
    --------------------------------------------
      LOOP:  cpu time    6.75: real time    6.76

 eigenvalue-minimisations  :   192
 total energy-change (2. order) :-0.4969264E+01  (-0.4657398E+01)
 number of electron      40.0000000 magnetization       0.0000000      0.0000000     15.0000000
 augmentation part       40.0000000 magnetization       0.0000000      0.0000000     15.0000000

 Free energy of the ion-electron system (eV)
  ---------------------------------------------------
  alpha Z        PSCENC =        12.98155071
  Ewald energy   TEWEN  =       926.32851770
  -1/2 Hartree   DENC   =     -3693.39407330
  -exchange  EXHF       =         0.00000000
  -V(xc)+E(xc)   XCENC  =        17.57648478
  PAW double counting   =      2768.79633427    -2807.42643554
  entropy T*S    EENTRO =        -0.00378301
  eigenvalues    EBANDS =      -227.19537420
  atomic energy  EATOM  =      2971.47414053
  ---------------------------------------------------
  free energy    TOTEN  =       -30.86263806 eV

  energy without entropy =      -30.85885505  energy(sigma->0) =      -30.86169231


--------------------------------------------------------------------------------------------------------




----------------------------------------- Iteration    1(   5)  ---------------------------------------


     EDDAV:  cpu time    7.33: real time    7.35
       DOS:  cpu time    0.00: real time    0.00
 


 total charge     
 
# of ion     s       p       d       tot
----------------------------------------
  1        0.553   0.266   5.718   6.537
  2        0.553   0.266   5.717   6.536
  3        0.552   0.381   6.292   7.226
  4        0.553   0.381   6.292   7.225
  5        0.553   0.381   6.292   7.226
------------------------------------------------
tot        2.763   1.676  30.311  34.750
 


 magnetization (x)
 
# of ion     s       p       d       tot
----------------------------------------
  1       -0.000  -0.000  -0.000  -0.000
  2        0.000   0.000  -0.000  -0.000
  3        0.000  -0.000  -0.000  -0.000
  4        0.000   0.000   0.000   0.000
  5        0.000  -0.000  -0.001  -0.001
------------------------------------------------
tot        0.000  -0.000  -0.001  -0.001
 


 magnetization (y)
 
# of ion     s       p       d       tot
----------------------------------------
  1       -0.000  -0.000   0.000  -0.000
  2        0.000  -0.000   0.000   0.000
  3       -0.000   0.000   0.000  -0.000
  4       -0.000   0.000   0.000   0.000
  5       -0.000  -0.000   0.001   0.001
------------------------------------------------
tot       -0.000  -0.000   0.002   0.002
 


 magnetization (z)
 
# of ion     s       p       d       tot
----------------------------------------
  1        0.013   0.047   3.297   3.357
  2        0.013   0.047   3.298   3.357
  3        0.047   0.077   2.748   2.872
  4        0.047   0.077   2.748   2.872
  5        0.047   0.077   2.748   2.872
------------------------------------------------
tot        0.167   0.325  14.838  15.330
 
    CHARGE:  cpu time    1.45: real time    1.47
    MIXING:  cpu time    0.10: real time    0.10
    --------------------------------------------
      LOOP:  cpu time    8.90: real time    8.94

 eigenvalue-minimisations  :   208
 total energy-change (2. order) :-0.1860131E+00  (-0.1791050E+00)
 number of electron      40.0000001 magnetization      -0.0001961      0.0002379     15.8424449
 augmentation part       19.6859023 magnetization      -0.0006600      0.0006500      9.6083970

 Broyden mixing:
  rms(total) = 0.21381E+01    rms(broyden)= 0.21372E+01
  rms(prec ) = 0.23934E+01
  weight for this iteration     100.00

 Free energy of the ion-electron system (eV)
  ---------------------------------------------------
  alpha Z        PSCENC =        12.98155071
  Ewald energy   TEWEN  =       926.32851770
  -1/2 Hartree   DENC   =     -3693.39407330
  -exchange  EXHF       =         0.00000000
  -V(xc)+E(xc)   XCENC  =        17.57648478
  PAW double counting   =      2768.79633427    -2807.42643554
  entropy T*S    EENTRO =        -0.01323184
  eigenvalues    EBANDS =      -227.37193851
  atomic energy  EATOM  =      2971.47414053
  ---------------------------------------------------
  free energy    TOTEN  =       -31.04865120 eV

  energy without entropy =      -31.03541936  energy(sigma->0) =      -31.04534324


--------------------------------------------------------------------------------------------------------




----------------------------------------- Iteration    1(   6)  ---------------------------------------


    POTLOK:  cpu time    6.89: real time    6.90
    SETDIJ:  cpu time    0.83: real time    0.83
     EDDAV:  cpu time    6.40: real time    6.43
       DOS:  cpu time    0.00: real time    0.00
    CHARGE:  cpu time    1.58: real time    1.60
    MIXING:  cpu time    0.08: real time    0.10
    --------------------------------------------
      LOOP:  cpu time   15.80: real time   15.87

 eigenvalue-minimisations  :   176
 total energy-change (2. order) :-0.3030607E+01  (-0.2849017E+01)
 number of electron      40.0000001 magnetization      -0.0008712      0.0011842     15.6433306
 augmentation part       22.3867128 magnetization       0.0021925     -0.0064453     11.8057623

 Broyden mixing:
  rms(total) = 0.37718E+01    rms(broyden)= 0.37714E+01
  rms(prec ) = 0.45669E+01
  weight for this iteration     100.00

 eigenvalues of (default mixing * dielectric matrix)
  average eigenvalue GAMMA=   0.3072
  0.3072

 Free energy of the ion-electron system (eV)
  ---------------------------------------------------
  alpha Z        PSCENC =        12.98155071
  Ewald energy   TEWEN  =       926.32851770
  -1/2 Hartree   DENC   =     -3658.43715541
  -exchange  EXHF       =         0.00000000
  -V(xc)+E(xc)   XCENC  =        20.44241542
  PAW double counting   =      2932.75454235    -2967.67928037
  entropy T*S    EENTRO =         0.00113719
  eigenvalues    EBANDS =      -271.94512664
  atomic energy  EATOM  =      2971.47414053
  ---------------------------------------------------
  free energy    TOTEN  =       -34.07925853 eV

  energy without entropy =      -34.08039572  energy(sigma->0) =      -34.07954283


--------------------------------------------------------------------------------------------------------




----------------------------------------- Iteration    1(   7)  ---------------------------------------


    POTLOK:  cpu time    6.85: real time    6.86
    SETDIJ:  cpu time    0.83: real time    0.83
     EDDAV:  cpu time    6.85: real time    6.90
       DOS:  cpu time    0.00: real time    0.00
    CHARGE:  cpu time    1.55: real time    1.57
    MIXING:  cpu time    0.09: real time    0.09
    --------------------------------------------
      LOOP:  cpu time   16.18: real time   16.25

 eigenvalue-minimisations  :   192
 total energy-change (2. order) : 0.2914055E+01  (-0.2018136E+01)
 number of electron      40.0000001 magnetization      -0.0017392      0.0005227     15.2420076
 augmentation part       22.0164712 magnetization      -0.0010382      0.0063984     11.6087856

 Broyden mixing:
  rms(total) = 0.24815E+01    rms(broyden)= 0.24802E+01
  rms(prec ) = 0.30579E+01
  weight for this iteration     100.00

 eigenvalues of (default mixing * dielectric matrix)
  average eigenvalue GAMMA=   0.4165
  0.6603  0.1726

 Free energy of the ion-electron system (eV)
  ---------------------------------------------------
  alpha Z        PSCENC =        12.98155071
  Ewald energy   TEWEN  =       926.32851770
  -1/2 Hartree   DENC   =     -3672.55263319
  -exchange  EXHF       =         0.00000000
  -V(xc)+E(xc)   XCENC  =        19.57965873
  PAW double counting   =      2999.28346769    -3036.97706057
  entropy T*S    EENTRO =         0.00309685
  eigenvalues    EBANDS =      -251.28594170
  atomic energy  EATOM  =      2971.47414053
  ---------------------------------------------------
  free energy    TOTEN  =       -31.16520326 eV

  energy without entropy =      -31.16830011  energy(sigma->0) =      -31.16597747


--------------------------------------------------------------------------------------------------------




----------------------------------------- Iteration    1(   8)  ---------------------------------------


    POTLOK:  cpu time    6.97: real time    6.97
    SETDIJ:  cpu time    0.84: real time    0.84
     EDDAV:  cpu time    6.82: real time    6.83
       DOS:  cpu time    0.00: real time    0.00
    CHARGE:  cpu time    1.45: real time    1.46
    MIXING:  cpu time    0.14: real time    0.14
    --------------------------------------------
      LOOP:  cpu time   16.22: real time   16.24

 eigenvalue-minimisations  :   192
 total energy-change (2. order) : 0.2390977E+01  (-0.9214414E+00)
 number of electron      40.0000001 magnetization      -0.0030369      0.0015594     15.8935544
 augmentation part       20.2547528 magnetization      -0.0019545      0.0003225      9.6765011

 Broyden mixing:
  rms(total) = 0.10038E+01    rms(broyden)= 0.10019E+01
  rms(prec ) = 0.11088E+01
  weight for this iteration     100.00

 eigenvalues of (default mixing * dielectric matrix)
  average eigenvalue GAMMA=   0.5283
  1.0659  0.3408  0.1783

 Free energy of the ion-electron system (eV)
  ---------------------------------------------------
  alpha Z        PSCENC =        12.98155071
  Ewald energy   TEWEN  =       926.32851770
  -1/2 Hartree   DENC   =     -3700.83777039
  -exchange  EXHF       =         0.00000000
  -V(xc)+E(xc)   XCENC  =        18.73873176
  PAW double counting   =      3118.60252408    -3161.30792883
  entropy T*S    EENTRO =         0.00244568
  eigenvalues    EBANDS =      -214.75643783
  atomic energy  EATOM  =      2971.47414053
  ---------------------------------------------------
  free energy    TOTEN  =       -28.77422659 eV

  energy without entropy =      -28.77667227  energy(sigma->0) =      -28.77483801


--------------------------------------------------------------------------------------------------------




----------------------------------------- Iteration    1(   9)  ---------------------------------------


    POTLOK:  cpu time    7.11: real time    7.11
    SETDIJ:  cpu time    0.82: real time    0.82
     EDDAV:  cpu time    5.46: real time    5.47
       DOS:  cpu time    0.00: real time    0.00
    CHARGE:  cpu time    1.48: real time    1.49
    MIXING:  cpu time    0.14: real time    0.14
    --------------------------------------------
      LOOP:  cpu time   15.01: real time   15.04

 eigenvalue-minimisations  :   152
 total energy-change (2. order) : 0.1716183E+00  (-0.2291003E+00)
 number of electron      40.0000001 magnetization       0.0013997     -0.0059374     16.4520256
 augmentation part       20.4821157 magnetization      -0.0136092      0.0160909     10.2817901

 Broyden mixing:
  rms(total) = 0.61017E+00    rms(broyden)= 0.60985E+00
  rms(prec ) = 0.69029E+00
  weight for this iteration     100.00

 eigenvalues of (default mixing * dielectric matrix)
  average eigenvalue GAMMA=   0.7504
  1.8720  0.1756  0.4769  0.4769

 Free energy of the ion-electron system (eV)
  ---------------------------------------------------
  alpha Z        PSCENC =        12.98155071
  Ewald energy   TEWEN  =       926.32851770
  -1/2 Hartree   DENC   =     -3689.97743169
  -exchange  EXHF       =         0.00000000
  -V(xc)+E(xc)   XCENC  =        19.89818319
  PAW double counting   =      3199.72067308    -3243.66495322
  entropy T*S    EENTRO =         0.01303634
  eigenvalues    EBANDS =      -225.37632498
  atomic energy  EATOM  =      2971.47414053
  ---------------------------------------------------
  free energy    TOTEN  =       -28.60260832 eV

  energy without entropy =      -28.61564466  energy(sigma->0) =      -28.60586741


--------------------------------------------------------------------------------------------------------




----------------------------------------- Iteration    1(  10)  ---------------------------------------


    POTLOK:  cpu time    7.10: real time    7.11
    SETDIJ:  cpu time    0.82: real time    0.82
     EDDAV:  cpu time    5.82: real time    5.83
       DOS:  cpu time    0.00: real time    0.00
 


 total charge     
 
# of ion     s       p       d       tot
----------------------------------------
  1        0.554   0.182   6.481   7.217
  2        0.554   0.182   6.521   7.258
  3        0.456   0.269   6.212   6.937
  4        0.458   0.269   6.221   6.948
  5        0.460   0.269   6.230   6.959
------------------------------------------------
tot        2.482   1.170  31.666  35.317
 


 magnetization (x)
 
# of ion     s       p       d       tot
----------------------------------------
  1        0.001   0.002   0.001   0.003
  2       -0.000  -0.001   0.000  -0.001
  3       -0.001  -0.001  -0.001  -0.003
  4       -0.001  -0.002  -0.003  -0.006
  5        0.001   0.001   0.002   0.004
------------------------------------------------
tot       -0.000  -0.001  -0.001  -0.003
 


 magnetization (y)
 
# of ion     s       p       d       tot
----------------------------------------
  1        0.001   0.003  -0.002   0.002
  2       -0.000  -0.001   0.001  -0.000
  3       -0.000  -0.001  -0.002  -0.003
  4       -0.000  -0.001  -0.001  -0.002
  5        0.000  -0.000  -0.001  -0.001
------------------------------------------------
tot        0.000  -0.000  -0.005  -0.005
 


 magnetization (z)
 
# of ion     s       p       d       tot
----------------------------------------
  1        0.016  -0.000   2.741   2.757
  2        0.017   0.000   2.702   2.719
  3       -0.008  -0.010   2.941   2.923
  4       -0.007  -0.010   2.932   2.915
  5       -0.005  -0.010   2.924   2.909
------------------------------------------------
tot        0.014  -0.031  14.241  14.223
 
    CHARGE:  cpu time    1.48: real time    1.49
    MIXING:  cpu time    0.13: real time    0.13
    --------------------------------------------
      LOOP:  cpu time   15.36: real time   15.39

 eigenvalue-minimisations  :   160
 total energy-change (2. order) : 0.1569365E+00  (-0.7735553E-01)
 number of electron      40.0000001 magnetization       0.0015528     -0.0057917     16.3632894
 augmentation part       21.5628464 magnetization       0.0004034     -0.0061810     12.2778715

 Broyden mixing:
  rms(total) = 0.58320E+00    rms(broyden)= 0.58187E+00
  rms(prec ) = 0.70620E+00
  weight for this iteration     100.00

 eigenvalues of (default mixing * dielectric matrix)
  average eigenvalue GAMMA=   0.6933
  1.9495  0.6420  0.1745  0.3502  0.3502

 Free energy of the ion-electron system (eV)
  ---------------------------------------------------
  alpha Z        PSCENC =        12.98155071
  Ewald energy   TEWEN  =       926.32851770
  -1/2 Hartree   DENC   =     -3681.69017393
  -exchange  EXHF       =         0.00000000
  -V(xc)+E(xc)   XCENC  =        20.40605253
  PAW double counting   =      3242.01775629    -3286.77351874
  entropy T*S    EENTRO =        -0.01557955
  eigenvalues    EBANDS =      -233.17441738
  atomic energy  EATOM  =      2971.47414053
  ---------------------------------------------------
  free energy    TOTEN  =       -28.44567184 eV

  energy without entropy =      -28.43009229  energy(sigma->0) =      -28.44177695


--------------------------------------------------------------------------------------------------------




----------------------------------------- Iteration    1(  11)  ---------------------------------------


    POTLOK:  cpu time    7.01: real time    7.02
    SETDIJ:  cpu time    0.82: real time    0.82
     EDDAV:  cpu time    5.73: real time    5.74
       DOS:  cpu time    0.00: real time    0.00
    CHARGE:  cpu time    1.62: real time    1.64
    MIXING:  cpu time    0.09: real time    0.09
    --------------------------------------------
      LOOP:  cpu time   15.29: real time   15.32

 eigenvalue-minimisations  :   144
 total energy-change (2. order) :-0.2104795E+00  (-0.3966559E-01)
 number of electron      40.0000001 magnetization       0.0059638     -0.0074039     16.6581844
 augmentation part       20.6604850 magnetization      -0.0095446      0.0024911     10.5462957

 Broyden mixing:
  rms(total) = 0.48505E+00    rms(broyden)= 0.48403E+00
  rms(prec ) = 0.58303E+00
  weight for this iteration     100.00

 eigenvalues of (default mixing * dielectric matrix)
  average eigenvalue GAMMA=   0.7624
  2.2347  0.9141  0.5747  0.1739  0.3384  0.3384

 Free energy of the ion-electron system (eV)
  ---------------------------------------------------
  alpha Z        PSCENC =        12.98155071
  Ewald energy   TEWEN  =       926.32851770
  -1/2 Hartree   DENC   =     -3687.03301087
  -exchange  EXHF       =         0.00000000
  -V(xc)+E(xc)   XCENC  =        20.21115585
  PAW double counting   =      3266.26416579    -3311.75929000
  entropy T*S    EENTRO =         0.01236289
  eigenvalues    EBANDS =      -227.13574395
  atomic energy  EATOM  =      2971.47414053
  ---------------------------------------------------
  free energy    TOTEN  =       -28.65615134 eV

  energy without entropy =      -28.66851423  energy(sigma->0) =      -28.65924206


--------------------------------------------------------------------------------------------------------




----------------------------------------- Iteration    1(  12)  ---------------------------------------


    POTLOK:  cpu time    6.88: real time    6.89
    SETDIJ:  cpu time    0.82: real time    0.82
     EDDAV:  cpu time    6.27: real time    6.28
       DOS:  cpu time    0.00: real time    0.00
    CHARGE:  cpu time    1.48: real time    1.49
    MIXING:  cpu time    0.09: real time    0.10
    --------------------------------------------
      LOOP:  cpu time   15.55: real time   15.58

 eigenvalue-minimisations  :   176
 total energy-change (2. order) :-0.2590629E-01  (-0.1162130E-01)
 number of electron      40.0000001 magnetization       0.0077042     -0.0085475     16.8251513
 augmentation part       20.7067388 magnetization      -0.0032817      0.0002582     10.7245563

 Broyden mixing:
  rms(total) = 0.42233E+00    rms(broyden)= 0.42225E+00
  rms(prec ) = 0.52332E+00
  weight for this iteration     100.00

 eigenvalues of (default mixing * dielectric matrix)
  average eigenvalue GAMMA=   0.7175
  2.3714  1.0480  0.5838  0.3361  0.3066  0.1749  0.2017

 Free energy of the ion-electron system (eV)
  ---------------------------------------------------
  alpha Z        PSCENC =        12.98155071
  Ewald energy   TEWEN  =       926.32851770
  -1/2 Hartree   DENC   =     -3685.66435521
  -exchange  EXHF       =         0.00000000
  -V(xc)+E(xc)   XCENC  =        20.30323890
  PAW double counting   =      3286.62370731    -3332.84609910
  entropy T*S    EENTRO =         0.00943240
  eigenvalues    EBANDS =      -227.89219087
  atomic energy  EATOM  =      2971.47414053
  ---------------------------------------------------
  free energy    TOTEN  =       -28.68205763 eV

  energy without entropy =      -28.69149003  energy(sigma->0) =      -28.68441573


--------------------------------------------------------------------------------------------------------




----------------------------------------- Iteration    1(  13)  ---------------------------------------


    POTLOK:  cpu time    6.85: real time    6.86
    SETDIJ:  cpu time    0.83: real time    0.83
     EDDAV:  cpu time    6.57: real time    6.61
       DOS:  cpu time    0.00: real time    0.00
    CHARGE:  cpu time    1.51: real time    1.53
    MIXING:  cpu time    0.09: real time    0.09
    --------------------------------------------
      LOOP:  cpu time   15.86: real time   15.92

 eigenvalue-minimisations  :   184
 total energy-change (2. order) : 0.2010282E-01  (-0.4119794E-02)
 number of electron      40.0000001 magnetization       0.0075215     -0.0121595     16.9915074
 augmentation part       20.8011386 magnetization       0.0017310      0.0020072     11.0453681

 Broyden mixing:
  rms(total) = 0.26031E+00    rms(broyden)= 0.26027E+00
  rms(prec ) = 0.32270E+00
  weight for this iteration     100.00

 eigenvalues of (default mixing * dielectric matrix)
  average eigenvalue GAMMA=   0.7450
  2.4758  1.2003  0.6343  0.6343  0.3389  0.3389  0.1742  0.1634

 Free energy of the ion-electron system (eV)
  ---------------------------------------------------
  alpha Z        PSCENC =        12.98155071
  Ewald energy   TEWEN  =       926.32851770
  -1/2 Hartree   DENC   =     -3684.44701746
  -exchange  EXHF       =         0.00000000
  -V(xc)+E(xc)   XCENC  =        20.34735239
  PAW double counting   =      3293.78371127    -3340.28473186
  entropy T*S    EENTRO =         0.00171241
  eigenvalues    EBANDS =      -228.84719051
  atomic energy  EATOM  =      2971.47414053
  ---------------------------------------------------
  free energy    TOTEN  =       -28.66195481 eV

  energy without entropy =      -28.66366722  energy(sigma->0) =      -28.66238292


--------------------------------------------------------------------------------------------------------




----------------------------------------- Iteration    1(  14)  ---------------------------------------


    POTLOK:  cpu time    6.88: real time    6.88
    SETDIJ:  cpu time    0.83: real time    0.83
     EDDAV:  cpu time    5.71: real time    5.80
       DOS:  cpu time    0.00: real time    0.00
    CHARGE:  cpu time    1.59: real time    1.62
    MIXING:  cpu time    0.09: real time    0.09
    --------------------------------------------
      LOOP:  cpu time   15.11: real time   15.23

 eigenvalue-minimisations  :   160
 total energy-change (2. order) :-0.3039102E-01  (-0.9427732E-02)
 number of electron      40.0000001 magnetization       0.0081160     -0.0121148     17.0310922
 augmentation part       21.0648914 magnetization      -0.0007878     -0.0117433     11.6259473

 Broyden mixing:
  rms(total) = 0.10887E+00    rms(broyden)= 0.10775E+00
  rms(prec ) = 0.12685E+00
  weight for this iteration     100.00

 eigenvalues of (default mixing * dielectric matrix)
  average eigenvalue GAMMA=   0.7312
  2.5145  1.3816  0.7153  0.7153  0.3326  0.3326  0.2508  0.1746  0.1630

 Free energy of the ion-electron system (eV)
  ---------------------------------------------------
  alpha Z        PSCENC =        12.98155071
  Ewald energy   TEWEN  =       926.32851770
  -1/2 Hartree   DENC   =     -3683.21530489
  -exchange  EXHF       =         0.00000000
  -V(xc)+E(xc)   XCENC  =        20.33648337
  PAW double counting   =      3293.20496957    -3339.80026290
  entropy T*S    EENTRO =        -0.01283511
  eigenvalues    EBANDS =      -229.98960481
  atomic energy  EATOM  =      2971.47414053
  ---------------------------------------------------
  free energy    TOTEN  =       -28.69234583 eV

  energy without entropy =      -28.67951072  energy(sigma->0) =      -28.68913705


--------------------------------------------------------------------------------------------------------




----------------------------------------- Iteration    1(  15)  ---------------------------------------


    POTLOK:  cpu time    6.91: real time    6.91
    SETDIJ:  cpu time    0.82: real time    0.82
     EDDAV:  cpu time    5.93: real time    5.95
       DOS:  cpu time    0.00: real time    0.00
 


 total charge     
 
# of ion     s       p       d       tot
----------------------------------------
  1        0.550   0.198   6.219   6.966
  2        0.550   0.198   6.209   6.956
  3        0.498   0.285   6.193   6.976
  4        0.498   0.281   6.214   6.994
  5        0.503   0.282   6.212   6.997
------------------------------------------------
tot        2.599   1.244  31.046  34.889
 


 magnetization (x)
 
# of ion     s       p       d       tot
----------------------------------------
  1        0.000   0.001  -0.006  -0.005
  2       -0.000  -0.001   0.008   0.007
  3        0.001   0.001   0.005   0.007
  4        0.000   0.000   0.002   0.002
  5       -0.000   0.000  -0.001  -0.001
------------------------------------------------
tot        0.001   0.001   0.008   0.010
 


 magnetization (y)
 
# of ion     s       p       d       tot
----------------------------------------
  1        0.000   0.002  -0.007  -0.005
  2       -0.001  -0.001   0.001  -0.000
  3        0.000   0.000  -0.001  -0.001
  4        0.001   0.001   0.001   0.002
  5        0.000   0.001  -0.001   0.000
------------------------------------------------
tot        0.001   0.002  -0.007  -0.004
 


 magnetization (z)
 
# of ion     s       p       d       tot
----------------------------------------
  1        0.015   0.017   3.029   3.062
  2        0.015   0.017   3.039   3.072
  3        0.039   0.010   2.985   3.034
  4        0.039   0.013   2.962   3.014
  5        0.044   0.012   2.961   3.017
------------------------------------------------
tot        0.152   0.070  14.976  15.198
 
    CHARGE:  cpu time    1.45: real time    1.46
    MIXING:  cpu time    0.13: real time    0.13
    --------------------------------------------
      LOOP:  cpu time   15.25: real time   15.28

 eigenvalue-minimisations  :   160
 total energy-change (2. order) :-0.2892985E-01  (-0.4471465E-02)
 number of electron      40.0000001 magnetization       0.0080820     -0.0123243     17.0335829
 augmentation part       21.1327339 magnetization       0.0020043     -0.0178156     11.7817085

 Broyden mixing:
  rms(total) = 0.17462E+00    rms(broyden)= 0.17257E+00
  rms(prec ) = 0.19766E+00
  weight for this iteration     100.00

 eigenvalues of (default mixing * dielectric matrix)
  average eigenvalue GAMMA=   0.6655
  2.5201  1.3929  0.7184  0.7184  0.3330  0.3330  0.2564  0.1745  0.1629  0.0449

 Free energy of the ion-electron system (eV)
  ---------------------------------------------------
  alpha Z        PSCENC =        12.98155071
  Ewald energy   TEWEN  =       926.32851770
  -1/2 Hartree   DENC   =     -3683.31130310
  -exchange  EXHF       =         0.00000000
  -V(xc)+E(xc)   XCENC  =        20.30261133
  PAW double counting   =      3291.74222490    -3338.34969635
  entropy T*S    EENTRO =        -0.01059648
  eigenvalues    EBANDS =      -229.87872491
  atomic energy  EATOM  =      2971.47414053
  ---------------------------------------------------
  free energy    TOTEN  =       -28.72127568 eV

  energy without entropy =      -28.71067920  energy(sigma->0) =      -28.71862656


--------------------------------------------------------------------------------------------------------




----------------------------------------- Iteration    1(  16)  ---------------------------------------


    POTLOK:  cpu time    6.90: real time    6.90
    SETDIJ:  cpu time    0.82: real time    0.82
     EDDAV:  cpu time    4.92: real time    4.93
       DOS:  cpu time    0.00: real time    0.00
    CHARGE:  cpu time    1.50: real time    1.52
    MIXING:  cpu time    0.10: real time    0.10
    --------------------------------------------
      LOOP:  cpu time   14.25: real time   14.27

 eigenvalue-minimisations  :   128
 total energy-change (2. order) : 0.4113500E-01  (-0.9420317E-03)
 number of electron      40.0000001 magnetization       0.0079784     -0.0121791     17.0494669
 augmentation part       21.1290194 magnetization       0.0022209     -0.0185343     11.7810936

 Broyden mixing:
  rms(total) = 0.16717E+00    rms(broyden)= 0.16714E+00
  rms(prec ) = 0.19157E+00
  weight for this iteration     100.00

 eigenvalues of (default mixing * dielectric matrix)
  average eigenvalue GAMMA=   0.6566
  2.5705  1.4418  0.7284  0.7284  0.2749  0.3320  0.3320  0.3009  0.1735  0.1816
  0.1583

 Free energy of the ion-electron system (eV)
  ---------------------------------------------------
  alpha Z        PSCENC =        12.98155071
  Ewald energy   TEWEN  =       926.32851770
  -1/2 Hartree   DENC   =     -3683.24626273
  -exchange  EXHF       =         0.00000000
  -V(xc)+E(xc)   XCENC  =        20.32700824
  PAW double counting   =      3291.77873895    -3338.38633018
  entropy T*S    EENTRO =        -0.01117979
  eigenvalues    EBANDS =      -229.92632410
  atomic energy  EATOM  =      2971.47414053
  ---------------------------------------------------
  free energy    TOTEN  =       -28.68014068 eV

  energy without entropy =      -28.66896089  energy(sigma->0) =      -28.67734573


--------------------------------------------------------------------------------------------------------




----------------------------------------- Iteration    1(  17)  ---------------------------------------


    POTLOK:  cpu time    6.88: real time    6.89
    SETDIJ:  cpu time    0.83: real time    0.83
     EDDAV:  cpu time    4.84: real time    4.85
       DOS:  cpu time    0.00: real time    0.00
    CHARGE:  cpu time    1.51: real time    1.53
    MIXING:  cpu time    0.11: real time    0.11
    --------------------------------------------
      LOOP:  cpu time   14.18: real time   14.21

 eigenvalue-minimisations  :   128
 total energy-change (2. order) : 0.1163578E-01  (-0.4537687E-02)
 number of electron      40.0000001 magnetization       0.0079495     -0.0122723     17.0499035
 augmentation part       21.0969329 magnetization       0.0041476     -0.0092741     11.7066966

 Broyden mixing:
  rms(total) = 0.13428E+00    rms(broyden)= 0.13346E+00
  rms(prec ) = 0.15137E+00
  weight for this iteration     100.00

 eigenvalues of (default mixing * dielectric matrix)
  average eigenvalue GAMMA=   0.6055
  2.5704  1.4412  0.7280  0.7280  0.2904  0.3316  0.3316  0.2941  0.1773  0.1719
  0.1559  0.0457

 Free energy of the ion-electron system (eV)
  ---------------------------------------------------
  alpha Z        PSCENC =        12.98155071
  Ewald energy   TEWEN  =       926.32851770
  -1/2 Hartree   DENC   =     -3683.27525833
  -exchange  EXHF       =         0.00000000
  -V(xc)+E(xc)   XCENC  =        20.33823911
  PAW double counting   =      3292.13980453    -3338.78641474
  entropy T*S    EENTRO =        -0.01162882
  eigenvalues    EBANDS =      -229.85745559
  atomic energy  EATOM  =      2971.47414053
  ---------------------------------------------------
  free energy    TOTEN  =       -28.66850490 eV

  energy without entropy =      -28.65687608  energy(sigma->0) =      -28.66559769


--------------------------------------------------------------------------------------------------------




----------------------------------------- Iteration    1(  18)  ---------------------------------------


    POTLOK:  cpu time    7.06: real time    7.06
    SETDIJ:  cpu time    0.83: real time    0.83
     EDDAV:  cpu time    5.23: real time    5.24
       DOS:  cpu time    0.00: real time    0.00
    CHARGE:  cpu time    1.60: real time    1.62
    MIXING:  cpu time    0.10: real time    0.10
    --------------------------------------------
      LOOP:  cpu time   14.83: real time   14.86

 eigenvalue-minimisations  :   128
 total energy-change (2. order) :-0.1421216E-01  (-0.4576039E-03)
 number of electron      40.0000001 magnetization       0.0077957     -0.0125380     17.0531208
 augmentation part       21.0998269 magnetization       0.0040484     -0.0091196     11.7166968

 Broyden mixing:
  rms(total) = 0.13780E+00    rms(broyden)= 0.13759E+00
  rms(prec ) = 0.15622E+00
  weight for this iteration     100.00

 eigenvalues of (default mixing * dielectric matrix)
  average eigenvalue GAMMA=   0.5727
  2.5784  1.4410  0.7283  0.7283  0.3216  0.3322  0.3322  0.2821  0.1756  0.1657
  0.1547  0.1547  0.0504

 Free energy of the ion-electron system (eV)
  ---------------------------------------------------
  alpha Z        PSCENC =        12.98155071
  Ewald energy   TEWEN  =       926.32851770
  -1/2 Hartree   DENC   =     -3683.27678010
  -exchange  EXHF       =         0.00000000
  -V(xc)+E(xc)   XCENC  =        20.32985381
  PAW double counting   =      3292.12691431    -3338.77384768
  entropy T*S    EENTRO =        -0.01154324
  eigenvalues    EBANDS =      -229.86152309
  atomic energy  EATOM  =      2971.47414053
  ---------------------------------------------------
  free energy    TOTEN  =       -28.68271705 eV

  energy without entropy =      -28.67117381  energy(sigma->0) =      -28.67983124


--------------------------------------------------------------------------------------------------------




----------------------------------------- Iteration    1(  19)  ---------------------------------------


    POTLOK:  cpu time    7.00: real time    7.00
    SETDIJ:  cpu time    0.83: real time    0.83
     EDDAV:  cpu time    5.77: real time    5.80
       DOS:  cpu time    0.00: real time    0.00
    CHARGE:  cpu time    1.55: real time    1.56
    MIXING:  cpu time    0.12: real time    0.12
    --------------------------------------------
      LOOP:  cpu time   15.27: real time   15.32

 eigenvalue-minimisations  :   144
 total energy-change (2. order) : 0.1408259E-03  (-0.5075584E-03)
 number of electron      40.0000001 magnetization       0.0076127     -0.0134905     17.0653042
 augmentation part       21.0958831 magnetization       0.0024629     -0.0112449     11.7191660

 Broyden mixing:
  rms(total) = 0.13368E+00    rms(broyden)= 0.13366E+00
  rms(prec ) = 0.15164E+00
  weight for this iteration     100.00

 eigenvalues of (default mixing * dielectric matrix)
  average eigenvalue GAMMA=   0.5654
  2.5918  1.4433  0.7289  0.7289  0.4356  0.3347  0.3347  0.2536  0.2536  0.2224
  0.1753  0.1671  0.1545  0.0920

 Free energy of the ion-electron system (eV)
  ---------------------------------------------------
  alpha Z        PSCENC =        12.98155071
  Ewald energy   TEWEN  =       926.32851770
  -1/2 Hartree   DENC   =     -3683.26541280
  -exchange  EXHF       =         0.00000000
  -V(xc)+E(xc)   XCENC  =        20.33180459
  PAW double counting   =      3292.21619781    -3338.87027736
  entropy T*S    EENTRO =        -0.01163678
  eigenvalues    EBANDS =      -229.86746063
  atomic energy  EATOM  =      2971.47414053
  ---------------------------------------------------
  free energy    TOTEN  =       -28.68257623 eV

  energy without entropy =      -28.67093944  energy(sigma->0) =      -28.67966703


--------------------------------------------------------------------------------------------------------




----------------------------------------- Iteration    1(  20)  ---------------------------------------


    POTLOK:  cpu time    6.85: real time    6.86
    SETDIJ:  cpu time    0.83: real time    0.83
     EDDAV:  cpu time    4.89: real time    4.90
       DOS:  cpu time    0.00: real time    0.00
 


 total charge     
 
# of ion     s       p       d       tot
----------------------------------------
  1        0.549   0.199   6.194   6.943
  2        0.550   0.199   6.189   6.938
  3        0.504   0.286   6.195   6.985
  4        0.500   0.284   6.205   6.990
  5        0.506   0.283   6.209   6.997
------------------------------------------------
tot        2.609   1.251  30.993  34.853
 


 magnetization (x)
 
# of ion     s       p       d       tot
----------------------------------------
  1       -0.000   0.000  -0.006  -0.006
  2        0.000   0.000   0.008   0.009
  3        0.000   0.000   0.003   0.003
  4        0.000   0.000   0.000   0.000
  5        0.000   0.000   0.001   0.001
------------------------------------------------
tot        0.001   0.001   0.006   0.008
 


 magnetization (y)
 
# of ion     s       p       d       tot
----------------------------------------
  1       -0.000  -0.000  -0.009  -0.010
  2       -0.000   0.000   0.003   0.004
  3        0.000   0.001  -0.001   0.000
  4       -0.000  -0.000  -0.003  -0.003
  5       -0.000  -0.000  -0.003  -0.004
------------------------------------------------
tot       -0.000   0.000  -0.012  -0.013
 


 magnetization (z)
 
# of ion     s       p       d       tot
----------------------------------------
  1        0.015   0.019   3.057   3.092
  2        0.015   0.019   3.062   3.097
  3        0.046   0.012   2.982   3.040
  4        0.041   0.014   2.973   3.028
  5        0.047   0.015   2.969   3.031
------------------------------------------------
tot        0.165   0.078  15.044  15.287
 
    CHARGE:  cpu time    1.59: real time    1.60
    MIXING:  cpu time    0.10: real time    0.10
    --------------------------------------------
      LOOP:  cpu time   14.26: real time   14.29

 eigenvalue-minimisations  :   128
 total energy-change (2. order) :-0.3928266E-03  (-0.2165654E-02)
 number of electron      40.0000001 magnetization       0.0073183     -0.0167945     17.1239719
 augmentation part       21.0965393 magnetization       0.0024550     -0.0147504     11.7767403

 Broyden mixing:
  rms(total) = 0.13078E+00    rms(broyden)= 0.13070E+00
  rms(prec ) = 0.14896E+00
  weight for this iteration     100.00

 eigenvalues of (default mixing * dielectric matrix)
  average eigenvalue GAMMA=   0.6010
  2.6403  1.4916  0.6699  0.7246  0.7246  0.5034  0.5034  0.3306  0.3306  0.3324
  0.1740  0.1819  0.1590  0.1483  0.1008

 Free energy of the ion-electron system (eV)
  ---------------------------------------------------
  alpha Z        PSCENC =        12.98155071
  Ewald energy   TEWEN  =       926.32851770
  -1/2 Hartree   DENC   =     -3683.18907795
  -exchange  EXHF       =         0.00000000
  -V(xc)+E(xc)   XCENC  =        20.33938685
  PAW double counting   =      3292.23275582    -3338.90221683
  entropy T*S    EENTRO =        -0.01201164
  eigenvalues    EBANDS =      -229.93601424
  atomic energy  EATOM  =      2971.47414053
  ---------------------------------------------------
  free energy    TOTEN  =       -28.68296905 eV

  energy without entropy =      -28.67095741  energy(sigma->0) =      -28.67996614


--------------------------------------------------------------------------------------------------------




----------------------------------------- Iteration    1(  21)  ---------------------------------------


    POTLOK:  cpu time    7.01: real time    7.02
    SETDIJ:  cpu time    0.82: real time    0.82
     EDDAV:  cpu time    4.87: real time    4.88
       DOS:  cpu time    0.00: real time    0.00
    CHARGE:  cpu time    1.61: real time    1.63
    MIXING:  cpu time    0.10: real time    0.10
    --------------------------------------------
      LOOP:  cpu time   14.42: real time   14.45

 eigenvalue-minimisations  :   128
 total energy-change (2. order) : 0.2182753E-02  (-0.8595415E-02)
 number of electron      40.0000001 magnetization       0.0038508     -0.0191680     17.1383278
 augmentation part       21.0761222 magnetization       0.0152723     -0.0043264     11.7319712

 Broyden mixing:
  rms(total) = 0.10098E+00    rms(broyden)= 0.97112E-01
  rms(prec ) = 0.11253E+00
  weight for this iteration     100.00

 eigenvalues of (default mixing * dielectric matrix)
  average eigenvalue GAMMA=   0.6051
  2.6638  1.6204  0.6940  0.7141  0.7141  0.5464  0.5464  0.5008  0.3374  0.3374
  0.2372  0.1743  0.1897  0.1599  0.1443  0.1013

 Free energy of the ion-electron system (eV)
  ---------------------------------------------------
  alpha Z        PSCENC =        12.98155071
  Ewald energy   TEWEN  =       926.32851770
  -1/2 Hartree   DENC   =     -3682.90582927
  -exchange  EXHF       =         0.00000000
  -V(xc)+E(xc)   XCENC  =        20.36619960
  PAW double counting   =      3291.64153221    -3338.36777425
  entropy T*S    EENTRO =        -0.01300112
  eigenvalues    EBANDS =      -230.18612241
  atomic energy  EATOM  =      2971.47414053
  ---------------------------------------------------
  free energy    TOTEN  =       -28.68078630 eV

  energy without entropy =      -28.66778518  energy(sigma->0) =      -28.67753602


--------------------------------------------------------------------------------------------------------




----------------------------------------- Iteration    1(  22)  ---------------------------------------


    POTLOK:  cpu time    6.85: real time    6.86
    SETDIJ:  cpu time    0.82: real time    0.82
     EDDAV:  cpu time    4.97: real time    5.10
       DOS:  cpu time    0.00: real time    0.00
    CHARGE:  cpu time    1.52: real time    1.54
    MIXING:  cpu time    0.12: real time    0.12
    --------------------------------------------
      LOOP:  cpu time   14.30: real time   14.45

 eigenvalue-minimisations  :   128
 total energy-change (2. order) :-0.3951389E-01  (-0.8429348E-02)
 number of electron      40.0000001 magnetization       0.0049362     -0.0177098     17.1356195
 augmentation part       21.0141466 magnetization       0.0009765     -0.0115649     11.5910925

 Broyden mixing:
  rms(total) = 0.71979E-01    rms(broyden)= 0.68309E-01
  rms(prec ) = 0.73469E-01
  weight for this iteration     100.00

 eigenvalues of (default mixing * dielectric matrix)
  average eigenvalue GAMMA=   0.5957
  2.6661  1.6524  0.6652  0.6938  0.6938  0.5632  0.5632  0.6112  0.3371  0.3371
  0.3501  0.2249  0.1743  0.1882  0.1605  0.1447  0.1013

 Free energy of the ion-electron system (eV)
  ---------------------------------------------------
  alpha Z        PSCENC =        12.98155071
  Ewald energy   TEWEN  =       926.32851770
  -1/2 Hartree   DENC   =     -3683.17861922
  -exchange  EXHF       =         0.00000000
  -V(xc)+E(xc)   XCENC  =        20.33497299
  PAW double counting   =      3290.59822531    -3337.32952937
  entropy T*S    EENTRO =        -0.00881793
  eigenvalues    EBANDS =      -229.92074091
  atomic energy  EATOM  =      2971.47414053
  ---------------------------------------------------
  free energy    TOTEN  =       -28.72030019 eV

  energy without entropy =      -28.71148226  energy(sigma->0) =      -28.71809571


--------------------------------------------------------------------------------------------------------




----------------------------------------- Iteration    1(  23)  ---------------------------------------


    POTLOK:  cpu time    6.86: real time    6.87
    SETDIJ:  cpu time    0.83: real time    0.83
     EDDAV:  cpu time    5.11: real time    5.19
       DOS:  cpu time    0.00: real time    0.00
    CHARGE:  cpu time    1.59: real time    1.61
    MIXING:  cpu time    0.11: real time    0.11
    --------------------------------------------
      LOOP:  cpu time   14.50: real time   14.61

 eigenvalue-minimisations  :   128
 total energy-change (2. order) :-0.8076646E-02  (-0.7915163E-02)
 number of electron      40.0000001 magnetization       0.0068317     -0.0152415     17.1530720
 augmentation part       20.9362532 magnetization       0.0013176     -0.0106869     11.4323395

 Broyden mixing:
  rms(total) = 0.10575E+00    rms(broyden)= 0.10551E+00
  rms(prec ) = 0.12390E+00
  weight for this iteration     100.00

 eigenvalues of (default mixing * dielectric matrix)
  average eigenvalue GAMMA=   0.5982
  2.7068  1.6657  0.6453  0.6568  0.6568  0.6856  0.6856  0.6821  0.5065  0.3365
  0.3365  0.1013  0.2381  0.1980  0.1741  0.1871  0.1602  0.1443

 Free energy of the ion-electron system (eV)
  ---------------------------------------------------
  alpha Z        PSCENC =        12.98155071
  Ewald energy   TEWEN  =       926.32851770
  -1/2 Hartree   DENC   =     -3683.50089574
  -exchange  EXHF       =         0.00000000
  -V(xc)+E(xc)   XCENC  =        20.33066610
  PAW double counting   =      3290.26346193    -3336.98803750
  entropy T*S    EENTRO =        -0.00485455
  eigenvalues    EBANDS =      -229.61292603
  atomic energy  EATOM  =      2971.47414053
  ---------------------------------------------------
  free energy    TOTEN  =       -28.72837683 eV

  energy without entropy =      -28.72352229  energy(sigma->0) =      -28.72716320


--------------------------------------------------------------------------------------------------------




----------------------------------------- Iteration    1(  24)  ---------------------------------------


    POTLOK:  cpu time    6.87: real time    6.88
    SETDIJ:  cpu time    0.82: real time    0.82
     EDDAV:  cpu time    4.98: real time    5.03
       DOS:  cpu time    0.00: real time    0.00
    CHARGE:  cpu time    1.46: real time    1.48
    MIXING:  cpu time    0.12: real time    0.12
    --------------------------------------------
      LOOP:  cpu time   14.27: real time   14.34

 eigenvalue-minimisations  :   128
 total energy-change (2. order) :-0.1554674E-02  (-0.4446002E-02)
 number of electron      40.0000001 magnetization       0.0061793     -0.0138091     17.1853614
 augmentation part       20.9008616 magnetization       0.0069734     -0.0112523     11.3780464

 Broyden mixing:
  rms(total) = 0.13563E+00    rms(broyden)= 0.13545E+00
  rms(prec ) = 0.16345E+00
  weight for this iteration     100.00

 eigenvalues of (default mixing * dielectric matrix)
  average eigenvalue GAMMA=   0.5939
  2.7764  1.6817  0.6403  0.6780  0.6780  0.7543  0.7543  0.6458  0.4742  0.3497
  0.3497  0.1013  0.2912  0.2532  0.1923  0.1744  0.1842  0.1603  0.1449

 Free energy of the ion-electron system (eV)
  ---------------------------------------------------
  alpha Z        PSCENC =        12.98155071
  Ewald energy   TEWEN  =       926.32851770
  -1/2 Hartree   DENC   =     -3683.57776684
  -exchange  EXHF       =         0.00000000
  -V(xc)+E(xc)   XCENC  =        20.34075745
  PAW double counting   =      3290.01680873    -3336.74299849
  entropy T*S    EENTRO =        -0.00297335
  eigenvalues    EBANDS =      -229.54796795
  atomic energy  EATOM  =      2971.47414053
  ---------------------------------------------------
  free energy    TOTEN  =       -28.72993151 eV

  energy without entropy =      -28.72695816  energy(sigma->0) =      -28.72918817


--------------------------------------------------------------------------------------------------------




----------------------------------------- Iteration    1(  25)  ---------------------------------------


    POTLOK:  cpu time    6.97: real time    6.98
    SETDIJ:  cpu time    0.83: real time    0.83
     EDDAV:  cpu time    4.88: real time    4.89
       DOS:  cpu time    0.00: real time    0.00
 


 total charge     
 
# of ion     s       p       d       tot
----------------------------------------
  1        0.549   0.206   6.062   6.818
  2        0.549   0.206   6.062   6.818
  3        0.522   0.289   6.203   7.015
  4        0.519   0.291   6.204   7.015
  5        0.522   0.290   6.204   7.015
------------------------------------------------
tot        2.661   1.283  30.736  34.680
 


 magnetization (x)
 
# of ion     s       p       d       tot
----------------------------------------
  1       -0.000  -0.000  -0.012  -0.013
  2        0.000  -0.000   0.013   0.013
  3        0.000   0.000   0.003   0.003
  4        0.000   0.000   0.001   0.001
  5       -0.000  -0.000  -0.000  -0.001
------------------------------------------------
tot       -0.000   0.000   0.004   0.004
 


 magnetization (y)
 
# of ion     s       p       d       tot
----------------------------------------
  1       -0.000  -0.001  -0.016  -0.017
  2       -0.000  -0.001   0.007   0.006
  3        0.000   0.000  -0.001  -0.001
  4       -0.000  -0.000  -0.003  -0.004
  5       -0.000  -0.000  -0.004  -0.005
------------------------------------------------
tot       -0.001  -0.002  -0.017  -0.021
 


 magnetization (z)
 
# of ion     s       p       d       tot
----------------------------------------
  1        0.014   0.025   3.198   3.238
  2        0.015   0.025   3.198   3.238
  3        0.064   0.023   2.989   3.076
  4        0.059   0.021   2.990   3.070
  5        0.064   0.022   2.989   3.075
------------------------------------------------
tot        0.216   0.116  15.365  15.697
 
    CHARGE:  cpu time    1.58: real time    1.59
    MIXING:  cpu time    0.12: real time    0.12
    --------------------------------------------
      LOOP:  cpu time   14.39: real time   14.42

 eigenvalue-minimisations  :   128
 total energy-change (2. order) :-0.6360480E-02  (-0.5280387E-02)
 number of electron      40.0000001 magnetization       0.0052072     -0.0144948     17.2279517
 augmentation part       20.9201522 magnetization       0.0036041     -0.0021997     11.4529955

 Broyden mixing:
  rms(total) = 0.11648E+00    rms(broyden)= 0.11640E+00
  rms(prec ) = 0.14067E+00
  weight for this iteration     100.00

 eigenvalues of (default mixing * dielectric matrix)
  average eigenvalue GAMMA=   0.6028
  2.8886  1.7104  0.6383  0.8669  0.8669  0.6907  0.6907  0.6242  0.4982  0.4982
  0.3431  0.3431  0.1013  0.2534  0.2173  0.1822  0.1745  0.1444  0.1641  0.1604

 Free energy of the ion-electron system (eV)
  ---------------------------------------------------
  alpha Z        PSCENC =        12.98155071
  Ewald energy   TEWEN  =       926.32851770
  -1/2 Hartree   DENC   =     -3683.41225881
  -exchange  EXHF       =         0.00000000
  -V(xc)+E(xc)   XCENC  =        20.35428297
  PAW double counting   =      3289.73377976    -3336.47152448
  entropy T*S    EENTRO =        -0.00411601
  eigenvalues    EBANDS =      -229.72066436
  atomic energy  EATOM  =      2971.47414053
  ---------------------------------------------------
  free energy    TOTEN  =       -28.73629199 eV

  energy without entropy =      -28.73217598  energy(sigma->0) =      -28.73526299


--------------------------------------------------------------------------------------------------------




----------------------------------------- Iteration    1(  26)  ---------------------------------------


    POTLOK:  cpu time    6.86: real time    6.86
    SETDIJ:  cpu time    0.82: real time    0.82
     EDDAV:  cpu time    4.84: real time    4.84
       DOS:  cpu time    0.00: real time    0.00
    CHARGE:  cpu time    1.50: real time    1.51
    MIXING:  cpu time    0.12: real time    0.12
    --------------------------------------------
      LOOP:  cpu time   14.14: real time   14.16

 eigenvalue-minimisations  :   128
 total energy-change (2. order) :-0.2616814E-02  (-0.4604200E-02)
 number of electron      40.0000001 magnetization       0.0080258     -0.0154096     17.2653638
 augmentation part       20.9573148 magnetization      -0.0074049     -0.0057431     11.5631973

 Broyden mixing:
  rms(total) = 0.74510E-01    rms(broyden)= 0.74358E-01
  rms(prec ) = 0.90972E-01
  weight for this iteration     100.00

 eigenvalues of (default mixing * dielectric matrix)
  average eigenvalue GAMMA=   0.6122
  3.0100  1.7163  1.0060  1.0060  0.6377  0.7068  0.7068  0.6100  0.5410  0.5410
  0.3371  0.3371  0.3366  0.1013  0.2488  0.1742  0.1911  0.1911  0.1602  0.1443
  0.1526

 Free energy of the ion-electron system (eV)
  ---------------------------------------------------
  alpha Z        PSCENC =        12.98155071
  Ewald energy   TEWEN  =       926.32851770
  -1/2 Hartree   DENC   =     -3683.18218811
  -exchange  EXHF       =         0.00000000
  -V(xc)+E(xc)   XCENC  =        20.37178654
  PAW double counting   =      3289.26772896    -3336.02348096
  entropy T*S    EENTRO =        -0.00701188
  eigenvalues    EBANDS =      -229.94995229
  atomic energy  EATOM  =      2971.47414053
  ---------------------------------------------------
  free energy    TOTEN  =       -28.73890880 eV

  energy without entropy =      -28.73189692  energy(sigma->0) =      -28.73715583


--------------------------------------------------------------------------------------------------------




----------------------------------------- Iteration    1(  27)  ---------------------------------------


    POTLOK:  cpu time    6.86: real time    6.87
    SETDIJ:  cpu time    0.82: real time    0.83
     EDDAV:  cpu time    5.05: real time    5.09
       DOS:  cpu time    0.00: real time    0.00
    CHARGE:  cpu time    1.57: real time    1.58
    MIXING:  cpu time    0.13: real time    0.13
    --------------------------------------------
      LOOP:  cpu time   14.44: real time   14.51

 eigenvalue-minimisations  :   128
 total energy-change (2. order) :-0.5860387E-02  (-0.5626923E-02)
 number of electron      40.0000001 magnetization       0.0069586     -0.0135880     17.2897965
 augmentation part       20.9950618 magnetization       0.0192595     -0.0197530     11.6609517

 Broyden mixing:
  rms(total) = 0.36923E-01    rms(broyden)= 0.36546E-01
  rms(prec ) = 0.44534E-01
  weight for this iteration     100.00

 eigenvalues of (default mixing * dielectric matrix)
  average eigenvalue GAMMA=   0.6245
  3.1554  1.7140  1.1899  1.1899  0.6376  0.7165  0.7165  0.6026  0.5495  0.5495
  0.4497  0.3395  0.3395  0.1013  0.2721  0.2139  0.1929  0.1742  0.1764  0.1602
  0.1440  0.1531

 Free energy of the ion-electron system (eV)
  ---------------------------------------------------
  alpha Z        PSCENC =        12.98155071
  Ewald energy   TEWEN  =       926.32851770
  -1/2 Hartree   DENC   =     -3683.01024857
  -exchange  EXHF       =         0.00000000
  -V(xc)+E(xc)   XCENC  =        20.38556614
  PAW double counting   =      3288.62098183    -3335.38916972
  entropy T*S    EENTRO =        -0.00915494
  eigenvalues    EBANDS =      -230.12695287
  atomic energy  EATOM  =      2971.47414053
  ---------------------------------------------------
  free energy    TOTEN  =       -28.74476919 eV

  energy without entropy =      -28.73561425  energy(sigma->0) =      -28.74248045


--------------------------------------------------------------------------------------------------------




----------------------------------------- Iteration    1(  28)  ---------------------------------------


    POTLOK:  cpu time    7.17: real time    7.18
    SETDIJ:  cpu time    0.83: real time    0.83
     EDDAV:  cpu time    5.07: real time    5.08
       DOS:  cpu time    0.00: real time    0.00
    CHARGE:  cpu time    1.58: real time    1.59
    MIXING:  cpu time    0.11: real time    0.11
    --------------------------------------------
      LOOP:  cpu time   14.75: real time   14.79

 eigenvalue-minimisations  :   128
 total energy-change (2. order) :-0.4386402E-02  (-0.3715724E-02)
 number of electron      40.0000001 magnetization       0.0059801     -0.0134234     17.2995150
 augmentation part       21.0144886 magnetization       0.0120363     -0.0073115     11.7095618

 Broyden mixing:
  rms(total) = 0.19422E-01    rms(broyden)= 0.18834E-01
  rms(prec ) = 0.22471E-01
  weight for this iteration     100.00

 eigenvalues of (default mixing * dielectric matrix)
  average eigenvalue GAMMA=   0.6259
  3.2637  1.6891  1.2938  1.2938  0.6376  0.7189  0.7189  0.5748  0.5748  0.5588
  0.5588  0.3404  0.3404  0.1013  0.2875  0.2189  0.2189  0.1742  0.1873  0.1873
  0.1605  0.1440  0.1512

 Free energy of the ion-electron system (eV)
  ---------------------------------------------------
  alpha Z        PSCENC =        12.98155071
  Ewald energy   TEWEN  =       926.32851770
  -1/2 Hartree   DENC   =     -3682.94932820
  -exchange  EXHF       =         0.00000000
  -V(xc)+E(xc)   XCENC  =        20.39047993
  PAW double counting   =      3288.00799555    -3334.78479552
  entropy T*S    EENTRO =        -0.01026177
  eigenvalues    EBANDS =      -230.18745452
  atomic energy  EATOM  =      2971.47414053
  ---------------------------------------------------
  free energy    TOTEN  =       -28.74915559 eV

  energy without entropy =      -28.73889382  energy(sigma->0) =      -28.74659015


--------------------------------------------------------------------------------------------------------




----------------------------------------- Iteration    1(  29)  ---------------------------------------


    POTLOK:  cpu time    6.86: real time    6.86
    SETDIJ:  cpu time    0.82: real time    0.82
     EDDAV:  cpu time    5.12: real time    5.13
       DOS:  cpu time    0.00: real time    0.00
    CHARGE:  cpu time    1.50: real time    1.51
    MIXING:  cpu time    0.19: real time    0.19
    --------------------------------------------
      LOOP:  cpu time   14.50: real time   14.51

 eigenvalue-minimisations  :   128
 total energy-change (2. order) :-0.1729435E-02  (-0.3804490E-02)
 number of electron      40.0000001 magnetization       0.0062864     -0.0145827     17.3074077
 augmentation part       21.0228693 magnetization       0.0019631     -0.0035534     11.7340412

 Broyden mixing:
  rms(total) = 0.21716E-01    rms(broyden)= 0.21499E-01
  rms(prec ) = 0.23449E-01
  weight for this iteration     100.00

 eigenvalues of (default mixing * dielectric matrix)
  average eigenvalue GAMMA=   0.6234
  3.3555  1.6820  1.3656  1.3656  0.6376  0.7223  0.7223  0.5901  0.5901  0.5745
  0.5745  0.3419  0.3419  0.3651  0.1013  0.2440  0.2440  0.1742  0.1908  0.1908
  0.1606  0.1444  0.1543  0.1289

 Free energy of the ion-electron system (eV)
  ---------------------------------------------------
  alpha Z        PSCENC =        12.98155071
  Ewald energy   TEWEN  =       926.32851770
  -1/2 Hartree   DENC   =     -3682.95973057
  -exchange  EXHF       =         0.00000000
  -V(xc)+E(xc)   XCENC  =        20.39168414
  PAW double counting   =      3287.66052578    -3334.43986475
  entropy T*S    EENTRO =        -0.01026344
  eigenvalues    EBANDS =      -230.17744512
  atomic energy  EATOM  =      2971.47414053
  ---------------------------------------------------
  free energy    TOTEN  =       -28.75088503 eV

  energy without entropy =      -28.74062159  energy(sigma->0) =      -28.74831917


--------------------------------------------------------------------------------------------------------




[...]
  2.597   0.065   0.010   0.044   0.011  -1.005  -0.056   0.001  -0.079  -0.032  -0.030  -0.020   0.002   0.000   0.012  -0.004
  0.065   2.537   0.065   0.099  -0.044  -0.044  -1.199  -0.070  -0.098   0.078  -0.216   0.023   0.115   0.039   0.042   0.035
  0.010   0.065   2.842  -0.037   0.005  -0.003  -0.073  -1.491   0.042   0.000  -0.511   0.069   0.011   0.251  -0.006  -0.005
  0.044   0.099  -0.037   2.656  -0.114  -0.078  -0.098   0.040  -1.319   0.131   0.124  -0.014   0.042  -0.023   0.166  -0.001
  0.011  -0.044   0.005  -0.114   2.586  -0.032   0.079   0.002   0.144  -0.971  -0.021  -0.012  -0.012   0.000  -0.015  -0.005
 -1.005  -0.044  -0.003  -0.078  -0.032   0.675  -0.030  -0.022   0.077   0.005   0.091   0.003   0.031  -0.006  -0.021  -0.001
 -0.056  -1.199  -0.073  -0.098   0.079  -0.030   1.261   0.083   0.121  -0.077   0.188  -0.016  -0.273  -0.051  -0.038   0.011
  0.001  -0.070  -1.491   0.040   0.002  -0.022   0.083   1.486  -0.046  -0.015   0.491  -0.084   0.001  -0.363  -0.001   0.001
 -0.079  -0.098   0.042  -1.319   0.144   0.077   0.121  -0.046   1.412  -0.057  -0.107   0.010  -0.038   0.030  -0.319   0.001
 -0.032   0.078   0.000   0.131  -0.971   0.005  -0.077  -0.015  -0.057   0.671   0.059   0.002   0.021  -0.004  -0.006   0.000
 -0.030  -0.216  -0.511   0.124  -0.021   0.091   0.188   0.491  -0.107   0.059   2.022  -0.094  -0.037  -0.339   0.022   0.005
 -0.020   0.023   0.069  -0.014  -0.012   0.003  -0.016  -0.084   0.010   0.002  -0.094   0.015   0.002   0.037  -0.001   0.000
  0.002   0.115   0.011   0.042  -0.012   0.031  -0.273   0.001  -0.038   0.021  -0.037   0.002   0.083   0.007   0.014  -0.007
  0.000   0.039   0.251  -0.023   0.000  -0.006  -0.051  -0.363   0.030  -0.004  -0.339   0.037   0.007   0.137  -0.004  -0.001
  0.012   0.042  -0.006   0.166  -0.015  -0.021  -0.038  -0.001  -0.319  -0.006   0.022  -0.001   0.014  -0.004   0.100   0.000
 -0.004   0.035  -0.005  -0.001  -0.005  -0.001   0.011   0.001   0.001   0.000   0.005   0.000  -0.007  -0.001   0.000   0.002
 -0.002  -0.001   0.021   0.000  -0.001   0.001   0.006   0.025  -0.003   0.001   0.048  -0.004  -0.001  -0.015   0.001   0.000
  0.005  -0.001   0.003   0.033  -0.003   0.000   0.001  -0.001   0.012   0.001  -0.003   0.000   0.000   0.001  -0.007   0.000
 total augmentation occupancy for first ion, spin component:           2
  0.004   0.000   0.000   0.000   0.000  -0.002   0.000   0.000   0.000   0.000   0.000   0.000   0.000   0.000   0.000   0.000
  0.000   0.004   0.000   0.000   0.000   0.000  -0.002   0.000   0.000   0.000   0.000   0.000   0.000   0.000   0.000   0.000
  0.000   0.000   0.004   0.000   0.000   0.000   0.000  -0.002   0.000   0.000   0.000   0.000   0.000   0.000   0.000   0.000
  0.000   0.000   0.000   0.004   0.000   0.000   0.000   0.000  -0.002   0.000   0.000   0.000   0.000   0.000   0.000   0.000
  0.000   0.000   0.000   0.000   0.004   0.000   0.000   0.000   0.000  -0.002   0.000   0.000   0.000   0.000   0.000   0.000
 -0.002   0.000   0.000   0.000   0.000   0.001   0.000   0.000   0.000   0.000   0.000   0.000   0.000   0.000   0.000   0.000
  0.000  -0.002   0.000   0.000   0.000   0.000   0.000   0.000   0.000   0.000   0.000   0.000   0.000   0.000   0.000   0.000
  0.000   0.000  -0.002   0.000   0.000   0.000   0.000   0.000   0.000   0.000   0.000   0.000   0.000   0.000   0.000   0.000
  0.000   0.000   0.000  -0.002   0.000   0.000   0.000   0.000   0.000   0.000   0.000   0.000   0.000   0.000   0.000   0.000
  0.000   0.000   0.000   0.000  -0.002   0.000   0.000   0.000   0.000   0.000   0.000   0.000   0.000   0.000   0.000   0.000
  0.000   0.000   0.000   0.000   0.000   0.000   0.000   0.000   0.000   0.000   0.000   0.000   0.000   0.000   0.000   0.000
  0.000   0.000   0.000   0.000   0.000   0.000   0.000   0.000   0.000   0.000   0.000   0.000   0.000   0.000   0.000   0.000
  0.000   0.000   0.000   0.000   0.000   0.000   0.000   0.000   0.000   0.000   0.000   0.000   0.000   0.000   0.000   0.000
  0.000   0.000   0.000   0.000   0.000   0.000   0.000   0.000   0.000   0.000   0.000   0.000   0.000   0.000   0.000   0.000
  0.000   0.000   0.000   0.000   0.000   0.000   0.000   0.000   0.000   0.000   0.000   0.000   0.000   0.000   0.000   0.000
  0.000   0.000   0.000   0.000   0.000   0.000   0.000   0.000   0.000   0.000   0.000   0.000   0.000   0.000   0.000   0.000
  0.000   0.000   0.000   0.000   0.000   0.000   0.000   0.000   0.000   0.000   0.000   0.000   0.000   0.000   0.000   0.000
  0.000   0.000   0.000   0.000   0.000   0.000   0.000   0.000   0.000   0.000   0.000   0.000   0.000   0.000   0.000   0.000
 total augmentation occupancy for first ion, spin component:           3
 -0.015   0.000   0.000   0.000   0.000   0.006   0.000   0.000   0.000   0.000   0.000   0.000   0.000   0.000   0.000   0.000
  0.000  -0.014   0.000  -0.001   0.000   0.000   0.006   0.000   0.000   0.000   0.000   0.000   0.000   0.000   0.000   0.000
  0.000   0.000  -0.014   0.000   0.000   0.000   0.000   0.005   0.000   0.000  -0.001   0.000   0.000   0.000   0.000   0.000
  0.000  -0.001   0.000  -0.015   0.001   0.000   0.000   0.000   0.006   0.000   0.000   0.000   0.000   0.000  -0.001   0.000
  0.000   0.000   0.000   0.001  -0.015   0.000   0.000   0.000   0.000   0.006   0.000   0.000   0.000   0.000   0.000   0.000
  0.006   0.000   0.000   0.000   0.000  -0.002   0.000   0.000   0.000   0.000   0.000   0.000   0.000   0.000   0.000   0.000
  0.000   0.006   0.000   0.000   0.000   0.000  -0.001   0.000   0.000   0.000   0.000   0.000   0.000   0.000   0.000   0.000
  0.000   0.000   0.005   0.000   0.000   0.000   0.000  -0.001   0.000   0.000   0.001   0.000   0.000   0.000   0.000   0.000
  0.000   0.000   0.000   0.006   0.000   0.000   0.000   0.000  -0.001   0.000   0.000   0.000   0.000   0.000   0.000   0.000
  0.000   0.000   0.000   0.000   0.006   0.000   0.000   0.000   0.000  -0.002   0.000   0.000   0.000   0.000   0.000   0.000
  0.000   0.000  -0.001   0.000   0.000   0.000   0.000   0.001   0.000   0.000   0.002  -0.001   0.000  -0.001   0.000   0.000
  0.000   0.000   0.000   0.000   0.000   0.000   0.000   0.000   0.000   0.000  -0.001   0.000   0.000   0.000   0.000   0.000
  0.000   0.000   0.000   0.000   0.000   0.000   0.000   0.000   0.000   0.000   0.000   0.000   0.000   0.000   0.000   0.000
  0.000   0.000   0.000   0.000   0.000   0.000   0.000   0.000   0.000   0.000  -0.001   0.000   0.000   0.000   0.000   0.000
  0.000   0.000   0.000  -0.001   0.000   0.000   0.000   0.000   0.000   0.000   0.000   0.000   0.000   0.000   0.000   0.000
  0.000   0.000   0.000   0.000   0.000   0.000   0.000   0.000   0.000   0.000   0.000   0.000   0.000   0.000   0.000   0.000
  0.000   0.000   0.000   0.000   0.000   0.000   0.000   0.000   0.000   0.000   0.000   0.000   0.000   0.000   0.000   0.000
  0.000   0.000   0.000   0.000   0.000   0.000   0.000   0.000   0.000   0.000   0.000   0.000   0.000   0.000   0.000   0.000
 total augmentation occupancy for first ion, spin component:           4
  2.560   0.077   0.006   0.051   0.040  -1.057   0.020   0.000  -0.016  -0.014  -0.017  -0.022  -0.020  -0.003   0.000  -0.001
  0.077   2.424   0.016   0.078  -0.051   0.006  -0.987  -0.012  -0.063   0.014  -0.042   0.006   0.057   0.000   0.029   0.042
  0.006   0.016   2.395  -0.006   0.003   0.003  -0.010  -0.898   0.002   0.002   0.196  -0.006   0.000   0.047   0.001  -0.004
  0.051   0.078  -0.006   2.519  -0.131  -0.014  -0.063   0.004  -1.063   0.008   0.020  -0.004   0.029   0.000   0.091   0.000
  0.040  -0.051   0.003  -0.131   2.517  -0.014   0.016   0.000  -0.003  -1.040  -0.012  -0.014   0.000  -0.002   0.020  -0.007
 -1.057   0.006   0.003  -0.014  -0.014   0.343  -0.025   0.011   0.012   0.036  -0.019   0.011   0.007   0.001   0.002   0.001
  0.020  -0.987  -0.010  -0.063   0.016  -0.025   0.168   0.004   0.036  -0.012   0.022   0.002   0.039   0.003  -0.019  -0.025
  0.000  -0.012  -0.898   0.004   0.000   0.011   0.004   0.087   0.000   0.007  -0.117   0.017  -0.007   0.035   0.004   0.002
 -0.016  -0.063   0.002  -1.063  -0.003   0.012   0.036   0.000   0.211   0.013  -0.011  -0.001  -0.019  -0.002   0.015   0.000
 -0.014   0.014   0.002   0.008  -1.040   0.036  -0.012   0.007   0.013   0.300  -0.012   0.007  -0.002   0.001  -0.010   0.003
 -0.017  -0.042   0.196   0.020  -0.012  -0.019   0.022  -0.117  -0.011  -0.012  -0.302   0.110   0.005   0.090  -0.004  -0.002
 -0.022   0.006  -0.006  -0.004  -0.014   0.011   0.002   0.017  -0.001   0.007   0.110  -0.006  -0.001  -0.014   0.001   0.001
 -0.020   0.057   0.000   0.029   0.000   0.007   0.039  -0.007  -0.019  -0.002   0.005  -0.001  -0.010   0.000   0.010   0.003
 -0.003   0.000   0.047   0.000  -0.002   0.001   0.003   0.035  -0.002   0.001   0.090  -0.014   0.000  -0.016   0.000   0.000
  0.000   0.029   0.001   0.091   0.020   0.002  -0.019   0.004   0.015  -0.010  -0.004   0.001   0.010   0.000   0.002   0.000
 -0.001   0.042  -0.004   0.000  -0.007   0.001  -0.025   0.002   0.000   0.003  -0.002   0.001   0.003   0.000   0.000   0.000
 -0.001   0.004   0.048  -0.003  -0.001   0.001  -0.002  -0.028   0.002   0.001  -0.004   0.003   0.000   0.005   0.000   0.000
  0.007   0.000   0.002   0.042  -0.007  -0.003   0.000  -0.001  -0.025   0.003   0.001   0.000   0.000   0.000   0.003   0.000


------------------------ aborting loop because EDIFF is reached ----------------------------------------


 


 total charge     
 
# of ion     s       p       d       tot
----------------------------------------
  1        0.540   0.196   6.186   6.922
  2        0.540   0.196   6.186   6.922
  3        0.499   0.242   6.220   6.961
  4        0.454   0.283   6.354   7.091
  5        0.499   0.242   6.217   6.958
------------------------------------------------
tot        2.532   1.159  31.163  34.854
 


 magnetization (x)
 
# of ion     s       p       d       tot
----------------------------------------
  1        0.000  -0.000   0.005   0.005
  2        0.000   0.000   0.005   0.005
  3        0.000  -0.000   0.005   0.005
  4       -0.000   0.000   0.005   0.004
  5        0.000  -0.000   0.005   0.005
------------------------------------------------
tot        0.000  -0.000   0.024   0.024
 


 magnetization (y)
 
# of ion     s       p       d       tot
----------------------------------------
  1       -0.000   0.000  -0.017  -0.018
  2       -0.000   0.000  -0.018  -0.018
  3       -0.000  -0.000  -0.017  -0.018
  4        0.000   0.000  -0.016  -0.016
  5       -0.000   0.000  -0.017  -0.017
------------------------------------------------
tot       -0.000   0.000  -0.086  -0.086
 


 magnetization (z)
 
# of ion     s       p       d       tot
----------------------------------------
  1        0.017   0.001   3.002   3.020
  2        0.017   0.001   3.002   3.020
  3        0.050  -0.001   2.923   2.972
  4       -0.051   0.003   2.775   2.728
  5        0.052  -0.001   2.931   2.982
------------------------------------------------
tot        0.085   0.004  14.633  14.721
 
    CHARGE:  cpu time    1.55: real time    1.56
    FORLOC:  cpu time    0.11: real time    0.11
    FORNL :  cpu time    0.48: real time    0.48
    STRESS:  cpu time    1.43: real time    1.43
    FORCOR:  cpu time    6.58: real time    6.59
    FORHAR:  cpu time    0.61: real time    0.61
    MIXING:  cpu time    0.12: real time    0.13
    FORVDW:  cpu time    0.00: real time    0.00

  FORCE on cell =-STRESS in cart. coord.  units (eV):
  Direction    XX          YY          ZZ          XY          YZ          ZX
  --------------------------------------------------------------------------------------
  Alpha Z    12.98155    12.98155    12.98155
  Ewald     128.56798   -49.99513   819.75663   122.49346     0.02781    -0.02992
  Hartree  1100.89702   944.41007  1629.75214   103.20198     0.01595    -0.03678
  E(xc)    -197.11273  -197.04367  -198.00592    -0.07294    -0.00012    -0.00028
  Local   -1455.29157 -1114.95622 -2680.71247  -230.00188    -0.04365     0.06782
  n-local  -137.18550  -138.10910  -141.80826     0.65952    -0.00002    -0.00056
  augment   190.75134   189.03147   196.83572     1.47321     0.00034     0.00051
  Kinetic   355.93462   353.71818   360.92981     1.86508     0.00035     0.00063
  Fock        0.00000     0.00000     0.00000     0.00000     0.00000     0.00000
  -------------------------------------------------------------------------------------
  Total      -0.45729     0.03717    -0.27081    -0.38158     0.00067     0.00141
  in kB      -0.55046     0.04474    -0.32598    -0.45932     0.00080     0.00170
  external pressure =       -0.28 kB  Pullay stress =        0.00 kB


 VOLUME and BASIS-vectors are now :
 -----------------------------------------------------------------------------
  energy-cutoff  :      350.00
  volume of cell :     1331.00
      direct lattice vectors                 reciprocal lattice vectors
    11.000000000  0.000000000  0.000000000     0.090909091  0.000000000  0.000000000
     0.000000000 11.000000000  0.000000000     0.000000000  0.090909091  0.000000000
     0.000000000  0.000000000 11.000000000     0.000000000  0.000000000  0.090909091

  length of vectors
    11.000000000 11.000000000 11.000000000     0.090909091  0.090909091  0.090909091


 FORCES acting on ions
    electron-ion (+dipol)            ewald-force                    non-local-force                 convergence-correction
 -----------------------------------------------------------------------------------------------
   0.249E+02 -.406E+02 -.449E+03   -.243E+02 0.396E+02 0.441E+03   -.703E+00 0.119E+01 0.757E+01   -.417E-04 -.101E-03 -.411E-03
   0.249E+02 -.406E+02 0.449E+03   -.243E+02 0.395E+02 -.441E+03   -.704E+00 0.119E+01 -.757E+01   -.543E-04 -.128E-03 0.372E-03
   -.265E+03 -.378E+03 0.731E-02   0.262E+03 0.372E+03 -.695E-02   0.259E+01 0.595E+01 -.811E-04   0.501E-03 -.382E-03 -.690E-04
   -.242E+03 0.419E+03 -.626E-02   0.238E+03 -.411E+03 0.592E-02   0.478E+01 -.835E+01 0.320E-03   0.367E-03 -.466E-03 -.812E-04
   0.458E+03 0.399E+02 0.116E-01   -.451E+03 -.405E+02 -.123E-01   -.643E+01 0.714E+00 -.113E-03   -.135E-03 -.522E-03 -.106E-03
 -----------------------------------------------------------------------------------------------
   0.473E+00 -.696E+00 0.631E-03   0.568E-13 0.142E-13 -.143E-13   -.469E+00 0.694E+00 -.342E-03   0.637E-03 -.160E-02 -.295E-03
 
 
 POSITION                                       TOTAL-FORCE (eV/Angst)
 -----------------------------------------------------------------------------------
      5.42781      5.61480      7.34175        -0.051284      0.131767     -0.089124
      5.42792      5.61471      3.65819        -0.052046      0.131400      0.089921
      6.42729      6.62612      5.49993        -0.177224     -0.082149      0.000205
      6.15765      4.37600      5.50000         0.106210     -0.253829     -0.000099
      4.05933      5.26836      5.50012         0.174343      0.072812     -0.000903
 -----------------------------------------------------------------------------------
    total drift:                                0.004207     -0.004364     -0.000007


--------------------------------------------------------------------------------------------------------



  FREE ENERGIE OF THE ION-ELECTRON SYSTEM (eV)
  ---------------------------------------------------
  free  energy   TOTEN  =       -28.89141704 eV

  energy  without entropy=      -28.89274812  energy(sigma->0) =      -28.89174981
 
 d Force = 0.3462150E-03[-0.662E-05, 0.699E-03]  d Energy = 0.2455984E-03 0.101E-03
 d Force = 0.4627615E+01[ 0.464E+01, 0.462E+01]  d Ewald  = 0.4627627E+01-0.122E-04


--------------------------------------------------------------------------------------------------------


    POTLOK:  cpu time    7.95: real time    7.95


--------------------------------------------------------------------------------------------------------




--------------------------------------------------------------------------------------------------------


 writing wavefunctions
     LOOP+:  cpu time  455.76: real time  458.02
    4ORBIT:  cpu time    0.00: real time    0.00
 


 orbital moment (x)
 
 # of ion     p       d       tot
 ----------------------------------------
  1         0.000   0.000   0.000
  2         0.000   0.000   0.000
  3         0.000   0.000   0.000
  4         0.000   0.000   0.000
  5         0.000   0.000   0.000
 ----------------------------------------
            0.000   0.000   0.000
 


 orbital moment (y)
 
 # of ion     p       d       tot
 ----------------------------------------
  1         0.000   0.000   0.000
  2         0.000   0.000   0.000
  3         0.000   0.000   0.000
  4         0.000   0.000   0.000
  5         0.000   0.000   0.000
 ----------------------------------------
            0.000   0.000   0.000
 


 orbital moment (z)
 
 # of ion     p       d       tot
 ----------------------------------------
  1         0.000   0.000   0.000
  2         0.000   0.000   0.000
  3         0.000   0.000   0.000
  4         0.000   0.000   0.000
  5         0.000   0.000   0.000
 ----------------------------------------
            0.000   0.000   0.000
 


 total charge     
 
# of ion     s       p       d       tot
----------------------------------------
  1        0.540   0.196   6.186   6.922
  2        0.540   0.196   6.186   6.922
  3        0.499   0.242   6.220   6.961
  4        0.454   0.283   6.354   7.091
  5        0.499   0.242   6.217   6.958
------------------------------------------------
tot        2.532   1.159  31.163  34.854
 


 magnetization (x)
 
# of ion     s       p       d       tot
----------------------------------------
  1        0.000  -0.000   0.005   0.005
  2        0.000   0.000   0.005   0.005
  3        0.000  -0.000   0.005   0.005
  4       -0.000   0.000   0.005   0.004
  5        0.000  -0.000   0.005   0.005
------------------------------------------------
tot        0.000  -0.000   0.024   0.024
 


 magnetization (y)
 
# of ion     s       p       d       tot
----------------------------------------
  1       -0.000   0.000  -0.017  -0.018
  2       -0.000   0.000  -0.018  -0.018
  3       -0.000  -0.000  -0.017  -0.018
  4        0.000   0.000  -0.016  -0.016
  5       -0.000   0.000  -0.017  -0.017
------------------------------------------------
tot       -0.000   0.000  -0.086  -0.086
 


 magnetization (z)
 
# of ion     s       p       d       tot
----------------------------------------
  1        0.017   0.001   3.002   3.020
  2        0.017   0.001   3.002   3.020
  3        0.050  -0.001   2.923   2.972
  4       -0.051   0.003   2.775   2.728
  5        0.052  -0.001   2.931   2.982
------------------------------------------------
tot        0.085   0.004  14.633  14.721
 

 total amount of memory used by VASP on root node   319322. kBytes
========================================================================

   base      :      30000. kBytes
   nonl-proj :        555. kBytes
   fftplans  :      64964. kBytes
   grid      :     221184. kBytes
   one-center:         62. kBytes
   wavefun   :       2557. kBytes
 
  
  
 General timing and accounting informations for this job:
 ========================================================
  
                  Total CPU time used (sec):    13042.374
                            User time (sec):    12518.524
                          System time (sec):      523.850
                         Elapsed time (sec):    13098.660
  
                   Maximum memory used (kb):      551928.
                   Average memory used (kb):           0.
  
                          Minor page faults:      4032688
                          Major page faults:           48
                 Voluntary context switches:       280177
