    5    5    1    1
  0.2662000E+03  0.1100000E-08  0.1100000E-08  0.1100000E-08  0.5000000E-15
  1.000000000000000E-004
  CAR 
 LIO                                     
   40    1   64
 
  0.0000000E+00  0.0000000E+00  0.0000000E+00  0.1000000E+01
   1       -8.329550
   2       -7.501114
   3       -7.289759
   4       -6.928841
   5       -6.856673
   6       -6.842822
   7       -6.591278
   8       -6.372878
   9       -6.341626
  10       -6.235010
  11       -6.006722
  12       -5.922894
  13       -5.915451
  14       -5.633307
  15       -5.596467
  16       -5.400451
  17       -5.330910
  18       -5.302568
  19       -5.097414
  20       -5.029909
  21       -4.998482
  22       -4.997928
  23       -4.991087
  24       -4.974943
  25       -4.910688
  26       -4.885446
  27       -4.802306
  28       -4.562862
  29       -4.448410
  30       -4.356182
  31       -4.320594
  32       -4.175433
  33       -4.063279
  34       -4.022508
  35       -3.986750
  36       -3.894801
  37       -3.631006
  38       -3.596435
  39       -3.583898
  40       -3.456804
  41       -3.265524
  42       -3.013589
  43       -2.794604
  44       -2.632324
  45       -2.390229
  46       -2.202774
  47       -2.174440
  48       -2.077005
  49       -1.986067
  50       -1.960518
  51       -1.925194
  52       -1.866947
  53       -1.823048
  54       -1.818408
  55       -1.744323
  56       -1.641251
  57       -1.624869
  58       -1.529767
  59       -1.514244
  60       -1.218145
  61       -1.000294
  62       -0.898545
  63       -0.571308
  64       -0.516807
