    1    1    1    1
  0.1331000E+04  0.1100000E-08  0.1100000E-08  0.1100000E-08  0.5000000E-15
  1.000000000000000E-004
  CAR 
 LIO                                     
    8    1   20
 
  0.0000000E+00  0.0000000E+00  0.0000000E+00  0.1000000E+01
   1       -7.021114
   2       -7.019815
   3       -6.723960
   4       -6.575719
   5       -5.588782
   6       -4.974438
   7       -4.017089
   8       -3.839355
   9       -3.559992
  10       -3.071583
  11       -3.070951
  12       -2.656239
  13       -1.380430
  14       -0.994304
  15       -0.993591
  16       -0.632146
  17       -0.630347
  18       -0.245414
  19       -0.181717
  20       -0.093094
