       N       E                     dE             d eps       ncg     rms          rms(c)
DAV:   1     0.295329313938E+02    0.29533E+02   -0.92661E+02    40   0.291E+02
DAV:   2     0.698942638071E+01   -0.22544E+02   -0.16035E+02    72   0.426E+01
DAV:   3    -0.297367056135E+01   -0.99631E+01   -0.87405E+01    72   0.447E+01
DAV:   4    -0.363415480048E+01   -0.66048E+00   -0.62322E+00    64   0.241E+01
DAV:   5    -0.365048129608E+01   -0.16326E-01   -0.15079E-01    40   0.244E+00    0.721E+00
DAV:   6    -0.342678726062E+01    0.22369E+00   -0.12974E+01    48   0.313E+01    0.134E+01
DAV:   7    -0.311686810354E+01    0.30992E+00   -0.18649E+00    40   0.133E+01    0.492E+00
DAV:   8    -0.320373739820E+01   -0.86869E-01   -0.13963E-01    40   0.455E+00    0.553E+00
DAV:   9    -0.318615241868E+01    0.17585E-01   -0.10073E-02    40   0.103E+00    0.554E+00
DAV:  10    -0.316992953035E+01    0.16223E-01   -0.92982E-03    40   0.123E+00    0.340E+00
DAV:  11    -0.325050730925E+01   -0.80578E-01   -0.18080E-01    40   0.624E+00    0.411E+00
DAV:  12    -0.316116867063E+01    0.89339E-01   -0.67557E-01    40   0.653E+00    0.370E+00
DAV:  13    -0.585620242411E+00    0.25755E+01   -0.28071E+00    40   0.126E+01    0.364E+00
DAV:  14     0.273455416482E+01    0.33202E+01   -0.12303E+00    56   0.945E+00    0.453E+00
DAV:  15     0.296328940528E+01    0.22874E+00   -0.16458E-01    56   0.459E+00    0.381E+00
DAV:  16     0.769494107721E+00   -0.21938E+01   -0.43522E-01    48   0.753E+00    0.258E+00
DAV:  17    -0.933139626807E+00   -0.17026E+01   -0.30517E-01    56   0.591E+00    0.172E+00
DAV:  18    -0.191777365494E+01   -0.98463E+00   -0.16317E-01    56   0.373E+00    0.119E+00
DAV:  19    -0.259428044703E+01   -0.67651E+00   -0.12693E-01    44   0.285E+00    0.854E-01
DAV:  20    -0.302326072265E+01   -0.42898E+00   -0.90246E-02    44   0.234E+00    0.561E-01
DAV:  21    -0.327315662543E+01   -0.24990E+00   -0.69251E-02    48   0.225E+00    0.293E-01
DAV:  22    -0.335705041992E+01   -0.83894E-01   -0.45582E-02    40   0.166E+00    0.491E-01
DAV:  23    -0.333483126150E+01    0.22219E-01   -0.14723E-02    40   0.767E-01    0.162E-01
DAV:  24    -0.334859805539E+01   -0.13767E-01   -0.74830E-03    40   0.574E-01    0.170E-01
DAV:  25    -0.336203449873E+01   -0.13436E-01   -0.10138E-02    40   0.621E-01    0.429E-01
DAV:  26    -0.335164869367E+01    0.10386E-01   -0.60988E-03    40   0.464E-01    0.174E-01
DAV:  27    -0.335391196700E+01   -0.22633E-02   -0.51896E-03    40   0.398E-01    0.180E-01
DAV:  28    -0.335789819376E+01   -0.39862E-02   -0.37678E-03    40   0.363E-01    0.218E-01
DAV:  29    -0.335981150677E+01   -0.19133E-02   -0.41659E-03    40   0.410E-01    0.208E-01
DAV:  30    -0.335970964081E+01    0.10187E-03   -0.17678E-03    40   0.279E-01    0.152E-01
DAV:  31    -0.336083100297E+01   -0.11214E-02   -0.26995E-03    40   0.292E-01    0.152E-01
DAV:  32    -0.336119057981E+01   -0.35958E-03   -0.16935E-03    40   0.234E-01    0.140E-01
DAV:  33    -0.336134143851E+01   -0.15086E-03   -0.83211E-04    40   0.167E-01    0.136E-01
DAV:  34    -0.336179024761E+01   -0.44881E-03   -0.71836E-04    40   0.154E-01    0.139E-01
DAV:  35    -0.336241458611E+01   -0.62434E-03   -0.11626E-03    40   0.217E-01    0.135E-01
DAV:  36    -0.336318019440E+01   -0.76561E-03   -0.11877E-03    40   0.280E-01    0.100E-01
DAV:  37    -0.336484100529E+01   -0.16608E-02   -0.20103E-03    40   0.310E-01    0.107E-01
DAV:  38    -0.336527987138E+01   -0.43887E-03   -0.10525E-03    40   0.222E-01    0.843E-02
DAV:  39    -0.336548944507E+01   -0.20957E-03   -0.43545E-04    40   0.136E-01    0.799E-02
DAV:  40    -0.336542983629E+01    0.59609E-04   -0.11265E-04    40   0.653E-02    0.716E-02
DAV:  41    -0.336541115186E+01    0.18684E-04   -0.11551E-05    40   0.217E-02    0.711E-02
DAV:  42    -0.336537262072E+01    0.38531E-04   -0.91134E-05    40   0.542E-02    0.726E-02
DAV:  43    -0.336535240906E+01    0.20212E-04   -0.35347E-05    40   0.357E-02    0.746E-02
DAV:  44    -0.336530693079E+01    0.45478E-04   -0.29351E-05    40   0.331E-02    0.745E-02
DAV:  45    -0.336546841260E+01   -0.16148E-03   -0.11228E-04    40   0.650E-02    0.765E-02
DAV:  46    -0.336546405885E+01    0.43537E-05   -0.88912E-06    40   0.209E-02
   1 F= -.33654641E+01 E0= -.33658082E+01  d E =0.137649E-02  mag=    -0.0024     0.0029     4.0000
