LIO                                     
           1
    11.000000    0.000000    0.000000
     0.000000   11.000000    0.000000
     0.000000    0.000000   11.000000
   Fe
   1
Direct configuration=     1
   0.50000000  0.50000000  0.50000000
