    5    5   20    1
  0.2662000E+03  0.1100000E-08  0.1100000E-08  0.1100000E-08  0.5000000E-15
  1.000000000000000E-004
  CAR 
 LIO                                     
   40    1   62
 
  0.0000000E+00  0.0000000E+00  0.0000000E+00  0.1000000E+01
   1       -8.371491
   2       -7.530194
   3       -7.316802
   4       -6.910398
   5       -6.840591
   6       -6.838905
   7       -6.660850
   8       -6.435050
   9       -6.349803
  10       -6.287797
  11       -6.023183
  12       -5.934505
  13       -5.898848
  14       -5.619264
  15       -5.586529
  16       -5.422664
  17       -5.344362
  18       -5.299124
  19       -5.075364
  20       -5.066455
  21       -5.033901
  22       -4.997409
  23       -4.981722
  24       -4.973429
  25       -4.908790
  26       -4.871501
  27       -4.841332
  28       -4.610460
  29       -4.417107
  30       -4.329138
  31       -4.307125
  32       -4.218323
  33       -4.104983
  34       -4.081025
  35       -3.983203
  36       -3.866143
  37       -3.677339
  38       -3.605300
  39       -3.570087
  40       -3.470012
  41       -3.302726
  42       -3.019116
  43       -2.777843
  44       -2.633129
  45       -2.452648
  46       -2.198721
  47       -2.173800
  48       -2.110399
  49       -1.996314
  50       -1.952755
  51       -1.904670
  52       -1.833254
  53       -1.829328
  54       -1.800055
  55       -1.767580
  56       -1.651320
  57       -1.605387
  58       -1.561897
  59       -1.512668
  60       -1.190552
  61       -1.001694
  62       -0.894567
