 running on   16 total cores
 distrk:  each k-point on   16 cores,    1 groups
 distr:  one band on    8 cores,    2 groups
 using from now: INCAR     
 vasp.5.3.2 13Sep12 (build Sep  9 2014 11:37:56) complex                        
  
 POSCAR found type information on POSCAR  Fe
 POSCAR found :  1 types and       5 ions
 LDA part: xc-table for Pade appr. of Perdew
 POSCAR, INCAR and KPOINTS ok, starting setup
 FFT: planning ...
 WAVECAR not read
 entering main loop
       N       E                     dE             d eps       ncg     rms          rms(c)
DAV:   1     0.197367908752E+03    0.19737E+03   -0.76601E+03   124   0.602E+02
DAV:   2     0.166375761033E+02   -0.18073E+03   -0.15933E+03   124   0.202E+02
DAV:   3    -0.262167943847E+02   -0.42854E+02   -0.38427E+02   176   0.896E+01
DAV:   4    -0.309420006287E+02   -0.47252E+01   -0.44740E+01   192   0.462E+01
DAV:   5    -0.311193005872E+02   -0.17730E+00   -0.16952E+00   192   0.875E+00    0.196E+01
DAV:   6    -0.315478383144E+02   -0.42854E+00   -0.24891E+01   200   0.731E+01    0.272E+01
DAV:   7    -0.318622999249E+02   -0.31446E+00   -0.17732E+01   210   0.959E+01    0.275E+01
DAV:   8    -0.289955540320E+02    0.28667E+01   -0.77229E+00   210   0.493E+01    0.995E+00
DAV:   9    -0.294687467597E+02   -0.47319E+00   -0.42227E+00   218   0.460E+01    0.132E+01
DAV:  10    -0.287962860968E+02    0.67246E+00   -0.16309E+00   202   0.263E+01    0.340E+00
DAV:  11    -0.287831895967E+02    0.13097E-01   -0.53422E-01   140   0.718E+00    0.202E+00
DAV:  12    -0.287921764470E+02   -0.89869E-02   -0.25453E-01   164   0.571E+00    0.171E+00
DAV:  13    -0.288061165922E+02   -0.13940E-01   -0.14179E-01   172   0.454E+00    0.124E+00
DAV:  14    -0.288413571107E+02   -0.35241E-01   -0.15462E-01   156   0.554E+00    0.194E+00
DAV:  15    -0.288442336635E+02   -0.28766E-02   -0.40397E-02   180   0.542E+00    0.873E-01
DAV:  16    -0.288656385291E+02   -0.21405E-01   -0.19593E-01   124   0.267E+00    0.550E-01
DAV:  17    -0.288790401641E+02   -0.13402E-01   -0.15929E-01   124   0.224E+00    0.287E-01
DAV:  18    -0.288866929726E+02   -0.76528E-02   -0.13720E-01   124   0.192E+00    0.334E-01
DAV:  19    -0.288853649251E+02    0.13280E-02   -0.70788E-02   124   0.150E+00    0.187E-01
DAV:  20    -0.288872467177E+02   -0.18818E-02   -0.91191E-02   124   0.148E+00    0.188E-01
DAV:  21    -0.288880471843E+02   -0.80047E-03   -0.88817E-02   124   0.147E+00    0.195E-01
DAV:  22    -0.288879110449E+02    0.13614E-03   -0.71047E-02   124   0.135E+00    0.168E-01
DAV:  23    -0.288885411810E+02   -0.63014E-03   -0.62738E-02   124   0.122E+00    0.185E-01
DAV:  24    -0.288889584074E+02   -0.41723E-03   -0.57060E-02   124   0.112E+00    0.186E-01
DAV:  25    -0.288878028685E+02    0.11555E-02   -0.51030E-02   124   0.109E+00    0.123E-01
DAV:  26    -0.288883278479E+02   -0.52498E-03   -0.41359E-02   124   0.104E+00    0.120E-01
DAV:  27    -0.288881648137E+02    0.16303E-03   -0.30078E-02   124   0.870E-01    0.919E-02
DAV:  28    -0.288886515948E+02   -0.48678E-03   -0.25038E-02   124   0.816E-01    0.821E-02
DAV:  29    -0.288893161840E+02   -0.66459E-03   -0.24471E-02   124   0.751E-01    0.945E-02
DAV:  30    -0.288895101673E+02   -0.19398E-03   -0.20334E-02   124   0.706E-01    0.765E-02
DAV:  31    -0.288899702508E+02   -0.46008E-03   -0.21009E-02   124   0.701E-01    0.682E-02
DAV:  32    -0.288901648914E+02   -0.19464E-03   -0.19443E-02   124   0.676E-01    0.651E-02
DAV:  33    -0.288902845952E+02   -0.11970E-03   -0.14154E-02   130   0.595E-01    0.488E-02
DAV:  34    -0.288904306215E+02   -0.14603E-03   -0.10292E-02   124   0.504E-01    0.452E-02
DAV:  35    -0.288904809970E+02   -0.50376E-04   -0.69638E-03   124   0.419E-01    0.396E-02
DAV:  36    -0.288906467907E+02   -0.16579E-03   -0.62919E-03   124   0.395E-01    0.408E-02
DAV:  37    -0.288906856072E+02   -0.38817E-04   -0.53381E-03   124   0.352E-01    0.336E-02
DAV:  38    -0.288908048294E+02   -0.11922E-03   -0.41257E-03   124   0.320E-01    0.299E-02
DAV:  39    -0.288909076328E+02   -0.10280E-03   -0.40307E-03   124   0.296E-01    0.300E-02
DAV:  40    -0.288909746438E+02   -0.67011E-04   -0.41363E-03   124   0.305E-01    0.322E-02
DAV:  41    -0.288910487115E+02   -0.74068E-04   -0.33832E-03   124   0.277E-01    0.276E-02
DAV:  42    -0.288911232589E+02   -0.74547E-04   -0.29811E-03   124   0.267E-01    0.265E-02
DAV:  43    -0.288911474824E+02   -0.24224E-04   -0.21180E-03   124   0.234E-01    0.200E-02
DAV:  44    -0.288911968739E+02   -0.49391E-04   -0.20842E-03   124   0.216E-01    0.179E-02
DAV:  45    -0.288912515180E+02   -0.54644E-04   -0.19750E-03   124   0.208E-01    0.204E-02
DAV:  46    -0.288912485747E+02    0.29434E-05   -0.14168E-03   124   0.183E-01    0.163E-02
DAV:  47    -0.288912795150E+02   -0.30940E-04   -0.11383E-03   124   0.164E-01    0.151E-02
DAV:  48    -0.288913058722E+02   -0.26357E-04   -0.10156E-03   124   0.152E-01    0.134E-02
DAV:  49    -0.288913137911E+02   -0.79190E-05   -0.78802E-04   124   0.138E-01    0.108E-02
DAV:  50    -0.288913166888E+02   -0.28976E-05   -0.66709E-04   124   0.127E-01    0.113E-02
DAV:  51    -0.288913321245E+02   -0.15436E-04   -0.57333E-04   124   0.116E-01    0.129E-02
DAV:  52    -0.288913420448E+02   -0.99203E-05   -0.59415E-04   124   0.124E-01    0.103E-02
DAV:  53    -0.288913575415E+02   -0.15497E-04   -0.48153E-04   124   0.108E-01    0.919E-03
DAV:  54    -0.288913734120E+02   -0.15870E-04   -0.35513E-04   124   0.951E-02    0.791E-03
DAV:  55    -0.288913824279E+02   -0.90159E-05   -0.24948E-04   124   0.813E-02    0.546E-03
DAV:  56    -0.288913897416E+02   -0.73136E-05   -0.23663E-04   124   0.771E-02    0.647E-03
DAV:  57    -0.288913922452E+02   -0.25037E-05   -0.22475E-04   124   0.737E-02    0.526E-03
DAV:  58    -0.288914077751E+02   -0.15530E-04   -0.14524E-04   124   0.629E-02    0.443E-03
DAV:  59    -0.288914121037E+02   -0.43286E-05   -0.89714E-05   124   0.497E-02
   1 F= -.28891412E+02 E0= -.28891745E+02  d E =-.288914E+02  mag=     0.0181    -0.0958    15.9999
 curvature:   0.00 expect dE= 0.000E+00 dE for cont linesearch  0.000E+00
 trial: gam= 0.00000 g(F)=  0.992E-02 g(S)=  0.000E+00 ort = 0.000E+00 (trialstep = 0.100E+01)
 search vector abs. value=  0.992E-02
 bond charge predicted
       N       E                     dE             d eps       ncg     rms          rms(c)
DAV:   1    -0.288847084253E+02    0.66993E-02   -0.18426E+00   124   0.681E+00    0.994E-01
DAV:   2    -0.288951159139E+02   -0.10407E-01   -0.28557E-02   172   0.141E+00    0.505E-01
DAV:   3    -0.289003566632E+02   -0.52407E-02   -0.40893E-02   132   0.134E+00    0.318E-01
DAV:   4    -0.289006513435E+02   -0.29468E-03   -0.78453E-02   132   0.162E+00    0.216E-01
DAV:   5    -0.289023175453E+02   -0.16662E-02   -0.81152E-02   124   0.134E+00    0.277E-01
DAV:   6    -0.288984120978E+02    0.39054E-02   -0.34614E-02   124   0.107E+00    0.844E-02
DAV:   7    -0.289005512047E+02   -0.21391E-02   -0.49335E-02   124   0.108E+00    0.165E-01
DAV:   8    -0.289002644891E+02    0.28672E-03   -0.38301E-02   124   0.984E-01    0.141E-01
DAV:   9    -0.289001834904E+02    0.80999E-04   -0.32082E-02   124   0.858E-01    0.131E-01
DAV:  10    -0.288997272789E+02    0.45621E-03   -0.25102E-02   124   0.743E-01    0.105E-01
DAV:  11    -0.288992316588E+02    0.49562E-03   -0.18656E-02   124   0.663E-01    0.603E-02
DAV:  12    -0.288993163901E+02   -0.84731E-04   -0.12367E-02   124   0.559E-01    0.475E-02
DAV:  13    -0.288993112668E+02    0.51233E-05   -0.84077E-03   124   0.449E-01    0.456E-02
DAV:  14    -0.288993349690E+02   -0.23702E-04   -0.54676E-03   124   0.357E-01    0.312E-02
DAV:  15    -0.288993335706E+02    0.13984E-05   -0.36571E-03   124   0.292E-01    0.248E-02
DAV:  16    -0.288992962122E+02    0.37358E-04   -0.32449E-03   124   0.276E-01    0.291E-02
DAV:  17    -0.288993216435E+02   -0.25431E-04   -0.36717E-03   124   0.284E-01    0.276E-02
DAV:  18    -0.288993357854E+02   -0.14142E-04   -0.33974E-03   124   0.280E-01    0.239E-02
DAV:  19    -0.288993172441E+02    0.18541E-04   -0.29670E-03   124   0.259E-01    0.223E-02
DAV:  20    -0.288993440489E+02   -0.26805E-04   -0.19641E-03   124   0.215E-01    0.167E-02
DAV:  21    -0.288993597776E+02   -0.15729E-04   -0.11874E-03   124   0.173E-01    0.142E-02
DAV:  22    -0.288993491998E+02    0.10578E-04   -0.11106E-03   124   0.162E-01    0.161E-02
DAV:  23    -0.288993611461E+02   -0.11946E-04   -0.11440E-03   124   0.157E-01    0.145E-02
DAV:  24    -0.288993775988E+02   -0.16453E-04   -0.83115E-04   124   0.141E-01    0.115E-02
DAV:  25    -0.288993869094E+02   -0.93106E-05   -0.56441E-04   124   0.118E-01    0.992E-03
DAV:  26    -0.288993920756E+02   -0.51662E-05   -0.44057E-04   124   0.103E-01    0.903E-03
DAV:  27    -0.288994050225E+02   -0.12947E-04   -0.36012E-04   124   0.963E-02    0.770E-03
DAV:  28    -0.288994029519E+02    0.20706E-05   -0.37145E-04   124   0.924E-02    0.938E-03
DAV:  29    -0.288994049745E+02   -0.20226E-05   -0.41143E-04   124   0.915E-02    0.884E-03
DAV:  30    -0.288994031583E+02    0.18162E-05   -0.37819E-04   124   0.939E-02    0.793E-03
DAV:  31    -0.288994099777E+02   -0.68194E-05   -0.35485E-04   124   0.937E-02    0.724E-03
DAV:  32    -0.288994195310E+02   -0.95532E-05   -0.28582E-04   124   0.841E-02    0.687E-03
DAV:  33    -0.288994282844E+02   -0.87535E-05   -0.22626E-04   124   0.751E-02    0.548E-03
DAV:  34    -0.288994328957E+02   -0.46113E-05   -0.18951E-04   124   0.703E-02    0.469E-03
DAV:  35    -0.288994363772E+02   -0.34815E-05   -0.14581E-04   124   0.606E-02    0.498E-03
DAV:  36    -0.288994407597E+02   -0.43825E-05   -0.12305E-04   124   0.544E-02    0.438E-03
DAV:  37    -0.288994426801E+02   -0.19204E-05   -0.97003E-05   124   0.506E-02
   2 F= -.28899443E+02 E0= -.28899762E+02  d E =-.803058E-02  mag=     0.0189    -0.0961    16.0001
 trial-energy change:   -0.008031  1 .order   -0.007922   -0.009916   -0.005928
 step:   2.1060(harm=  2.4866)  dis= 0.01771  next Energy=   -28.902868 (dE=-0.115E-01)
 bond charge predicted
       N       E                     dE             d eps       ncg     rms          rms(c)
DAV:   1    -0.288855602088E+02    0.13881E-01   -0.22549E+00   124   0.754E+00    0.110E+00
DAV:   2    -0.288984017329E+02   -0.12842E-01   -0.34795E-02   172   0.155E+00    0.561E-01
DAV:   3    -0.289054677025E+02   -0.70660E-02   -0.44328E-02   132   0.138E+00    0.373E-01
DAV:   4    -0.289048607960E+02    0.60691E-03   -0.81098E-02   132   0.165E+00    0.233E-01
DAV:   5    -0.289067154414E+02   -0.18546E-02   -0.86413E-02   124   0.140E+00    0.307E-01
DAV:   6    -0.289022291911E+02    0.44863E-02   -0.33893E-02   124   0.111E+00    0.838E-02
DAV:   7    -0.289044734559E+02   -0.22443E-02   -0.50694E-02   124   0.113E+00    0.160E-01
DAV:   8    -0.289034018173E+02    0.10716E-02   -0.35896E-02   130   0.102E+00    0.769E-02
DAV:   9    -0.289042287455E+02   -0.82693E-03   -0.36430E-02   124   0.973E-01    0.102E-01
DAV:  10    -0.289036963221E+02    0.53242E-03   -0.20911E-02   124   0.750E-01    0.864E-02
DAV:  11    -0.289040659921E+02   -0.36967E-03   -0.16286E-02   124   0.616E-01    0.104E-01
DAV:  12    -0.289036464286E+02    0.41956E-03   -0.13279E-02   124   0.543E-01    0.746E-02
DAV:  13    -0.289033954435E+02    0.25099E-03   -0.88677E-03   124   0.471E-01    0.473E-02
DAV:  14    -0.289034454070E+02   -0.49964E-04   -0.60249E-03   124   0.396E-01    0.327E-02
DAV:  15    -0.289034932172E+02   -0.47810E-04   -0.39281E-03   124   0.313E-01    0.311E-02
DAV:  16    -0.289034816693E+02    0.11548E-04   -0.36902E-03   124   0.290E-01    0.278E-02
DAV:  17    -0.289035050713E+02   -0.23402E-04   -0.32279E-03   124   0.270E-01    0.255E-02
DAV:  18    -0.289034903781E+02    0.14693E-04   -0.25031E-03   124   0.252E-01    0.230E-02
DAV:  19    -0.289035039978E+02   -0.13620E-04   -0.28436E-03   124   0.250E-01    0.252E-02
DAV:  20    -0.289034995496E+02    0.44482E-05   -0.23948E-03   124   0.240E-01    0.215E-02
DAV:  21    -0.289035097903E+02   -0.10241E-04   -0.16201E-03   124   0.201E-01    0.186E-02
DAV:  22    -0.289035311252E+02   -0.21335E-04   -0.12029E-03   124   0.174E-01    0.152E-02
DAV:  23    -0.289035639466E+02   -0.32821E-04   -0.95479E-04   124   0.148E-01    0.124E-02
DAV:  24    -0.289035596312E+02    0.43154E-05   -0.83354E-04   124   0.140E-01    0.113E-02
DAV:  25    -0.289035695225E+02   -0.98913E-05   -0.64480E-04   124   0.121E-01    0.119E-02
DAV:  26    -0.289035725828E+02   -0.30603E-05   -0.53772E-04   124   0.112E-01    0.104E-02
DAV:  27    -0.289035839218E+02   -0.11339E-04   -0.49267E-04   124   0.109E-01    0.933E-03
DAV:  28    -0.289035677371E+02    0.16185E-04   -0.48956E-04   124   0.108E-01    0.908E-03
DAV:  29    -0.289035826455E+02   -0.14908E-04   -0.49649E-04   124   0.109E-01    0.941E-03
DAV:  30    -0.289035949785E+02   -0.12333E-04   -0.35826E-04   124   0.960E-02    0.690E-03
DAV:  31    -0.289035956900E+02   -0.71149E-06   -0.30652E-04   124   0.907E-02    0.726E-03
DAV:  32    -0.289036029588E+02   -0.72689E-05   -0.30601E-04   124   0.855E-02    0.674E-03
DAV:  33    -0.289036088733E+02   -0.59144E-05   -0.20841E-04   124   0.756E-02    0.548E-03
DAV:  34    -0.289036145377E+02   -0.56644E-05   -0.18694E-04   124   0.701E-02    0.512E-03
DAV:  35    -0.289036220192E+02   -0.74815E-05   -0.16245E-04   124   0.616E-02    0.529E-03
DAV:  36    -0.289036251037E+02   -0.30844E-05   -0.12398E-04   124   0.558E-02    0.469E-03
DAV:  37    -0.289036278848E+02   -0.27811E-05   -0.10989E-04   124   0.508E-02    0.396E-03
DAV:  38    -0.289036314255E+02   -0.35407E-05   -0.10009E-04   124   0.499E-02    0.362E-03
DAV:  39    -0.289036348375E+02   -0.34120E-05   -0.71749E-05   124   0.419E-02
   3 F= -.28903635E+02 E0= -.28903910E+02  d E =-.122227E-01  mag=     0.0191    -0.0960    16.0010
 curvature:  -1.16 expect dE=-0.905E-03 dE for cont linesearch -0.239E-03
 ZBRENT: extrapolating
 opt :   2.4575  next Energy=   -28.903886 (dE=-0.125E-01)
 bond charge predicted
       N       E                     dE             d eps       ncg     rms          rms(c)
DAV:   1    -0.289020716853E+02    0.15597E-02   -0.22777E-01   124   0.239E+00    0.349E-01
DAV:   2    -0.289034136562E+02   -0.13420E-02   -0.49859E-03   132   0.529E-01    0.177E-01
DAV:   3    -0.289056159464E+02   -0.22023E-02   -0.31728E-02   124   0.893E-01    0.192E-01
DAV:   4    -0.289043750603E+02    0.12409E-02   -0.34089E-02   124   0.963E-01    0.118E-01
DAV:   5    -0.289051555702E+02   -0.78051E-03   -0.24558E-02   124   0.743E-01    0.151E-01
DAV:   6    -0.289039779196E+02    0.11777E-02   -0.22413E-02   124   0.710E-01    0.103E-01
DAV:   7    -0.289041147110E+02   -0.13679E-03   -0.20676E-02   124   0.691E-01    0.904E-02
DAV:   8    -0.289048717652E+02   -0.75705E-03   -0.17978E-02   124   0.610E-01    0.139E-01
DAV:   9    -0.289037990697E+02    0.10727E-02   -0.15874E-02   124   0.601E-01    0.757E-02
DAV:  10    -0.289037431750E+02    0.55895E-04   -0.10930E-02   124   0.533E-01    0.483E-02
DAV:  11    -0.289038353828E+02   -0.92208E-04   -0.86862E-03   124   0.453E-01    0.464E-02
DAV:  12    -0.289038126944E+02    0.22688E-04   -0.67947E-03   124   0.399E-01    0.391E-02
DAV:  13    -0.289038552311E+02   -0.42537E-04   -0.45177E-03   124   0.325E-01    0.290E-02
DAV:  14    -0.289038348764E+02    0.20355E-04   -0.38059E-03   124   0.292E-01    0.278E-02
DAV:  15    -0.289037985730E+02    0.36303E-04   -0.28472E-03   124   0.257E-01    0.241E-02
DAV:  16    -0.289038225622E+02   -0.23989E-04   -0.21019E-03   124   0.227E-01    0.174E-02
DAV:  17    -0.289038414653E+02   -0.18903E-04   -0.16067E-03   124   0.199E-01    0.185E-02
DAV:  18    -0.289038287845E+02    0.12681E-04   -0.14343E-03   124   0.181E-01    0.159E-02
DAV:  19    -0.289038536325E+02   -0.24848E-04   -0.10157E-03   124   0.157E-01    0.129E-02
DAV:  20    -0.289038443253E+02    0.93073E-05   -0.73261E-04   124   0.135E-01    0.112E-02
DAV:  21    -0.289038276048E+02    0.16720E-04   -0.70818E-04   124   0.135E-01    0.115E-02
DAV:  22    -0.289038605373E+02   -0.32933E-04   -0.66894E-04   124   0.127E-01    0.113E-02
DAV:  23    -0.289038727397E+02   -0.12202E-04   -0.47972E-04   124   0.108E-01    0.832E-03
DAV:  24    -0.289038744500E+02   -0.17102E-05   -0.38341E-04   124   0.970E-02    0.828E-03
DAV:  25    -0.289038819190E+02   -0.74691E-05   -0.28423E-04   124   0.817E-02    0.608E-03
DAV:  26    -0.289038891267E+02   -0.72077E-05   -0.20622E-04   124   0.734E-02    0.592E-03
DAV:  27    -0.289038935700E+02   -0.44432E-05   -0.17894E-04   124   0.672E-02    0.489E-03
DAV:  28    -0.289038950451E+02   -0.14751E-05   -0.16195E-04   124   0.626E-02    0.539E-03
DAV:  29    -0.289038983687E+02   -0.33237E-05   -0.18775E-04   124   0.637E-02    0.593E-03
DAV:  30    -0.289039006841E+02   -0.23154E-05   -0.14740E-04   124   0.598E-02    0.468E-03
DAV:  31    -0.289039008789E+02   -0.19483E-06   -0.13263E-04   124   0.586E-02    0.457E-03
DAV:  32    -0.289039017889E+02   -0.91001E-06   -0.14567E-04   124   0.599E-02    0.467E-03
DAV:  33    -0.289039054895E+02   -0.37006E-05   -0.10547E-04   124   0.536E-02    0.421E-03
DAV:  34    -0.289039065039E+02   -0.10144E-05   -0.95335E-05   124   0.503E-02
   4 F= -.28903907E+02 E0= -.28904159E+02  d E =-.124944E-01  mag=     0.0199    -0.0956    16.0016
 curvature:  -1.22 expect dE=-0.967E-03 dE for cont linesearch -0.418E-07
 trial: gam= 0.08188 g(F)=  0.794E-03 g(S)=  0.000E+00 ort =-0.184E-04 (trialstep = 0.129E+01)
 search vector abs. value=  0.857E-03
 bond charge predicted
       N       E                     dE             d eps       ncg     rms          rms(c)
DAV:   1    -0.289025392011E+02    0.13663E-02   -0.26205E-01   124   0.258E+00    0.391E-01
DAV:   2    -0.289045629350E+02   -0.20237E-02   -0.72511E-03   172   0.957E-01    0.335E-01
DAV:   3    -0.289073916787E+02   -0.28287E-02   -0.37198E-02   146   0.201E+00    0.533E-01
DAV:   4    -0.289066733302E+02    0.71835E-03   -0.55574E-02   132   0.167E+00    0.192E-01
DAV:   5    -0.289054089336E+02    0.12644E-02   -0.33549E-02   124   0.872E-01    0.137E-01
DAV:   6    -0.289049182509E+02    0.49068E-03   -0.24183E-02   124   0.713E-01    0.112E-01
DAV:   7    -0.289049117719E+02    0.64790E-05   -0.32919E-02   124   0.830E-01    0.890E-02
DAV:   8    -0.289048056822E+02    0.10609E-03   -0.24592E-02   124   0.789E-01    0.935E-02
DAV:   9    -0.289050342051E+02   -0.22852E-03   -0.16827E-02   124   0.620E-01    0.983E-02
DAV:  10    -0.289048436643E+02    0.19054E-03   -0.12711E-02   124   0.521E-01    0.892E-02
DAV:  11    -0.289045975889E+02    0.24608E-03   -0.12350E-02   124   0.522E-01    0.672E-02
DAV:  12    -0.289044367199E+02    0.16087E-03   -0.92106E-03   124   0.483E-01    0.424E-02
DAV:  13    -0.289045774939E+02   -0.14077E-03   -0.59680E-03   124   0.394E-01    0.332E-02
DAV:  14    -0.289045612400E+02    0.16254E-04   -0.44964E-03   124   0.329E-01    0.330E-02
DAV:  15    -0.289045871434E+02   -0.25903E-04   -0.33023E-03   124   0.276E-01    0.272E-02
DAV:  16    -0.289045944191E+02   -0.72756E-05   -0.20602E-03   124   0.226E-01    0.172E-02
DAV:  17    -0.289045856177E+02    0.88013E-05   -0.13167E-03   124   0.186E-01    0.173E-02
DAV:  18    -0.289046186349E+02   -0.33017E-04   -0.12431E-03   124   0.169E-01    0.176E-02
DAV:  19    -0.289046135851E+02    0.50498E-05   -0.10310E-03   124   0.160E-01    0.140E-02
DAV:  20    -0.289046023457E+02    0.11239E-04   -0.97910E-04   124   0.157E-01    0.154E-02
DAV:  21    -0.289046095630E+02   -0.72173E-05   -0.99769E-04   124   0.153E-01    0.148E-02
DAV:  22    -0.289046394362E+02   -0.29873E-04   -0.75488E-04   124   0.139E-01    0.108E-02
DAV:  23    -0.289046489088E+02   -0.94726E-05   -0.52543E-04   124   0.115E-01    0.104E-02
DAV:  24    -0.289046594419E+02   -0.10533E-04   -0.44962E-04   124   0.100E-01    0.920E-03
DAV:  25    -0.289046742177E+02   -0.14776E-04   -0.33883E-04   124   0.915E-02    0.717E-03
DAV:  26    -0.289046678658E+02    0.63519E-05   -0.25848E-04   124   0.835E-02    0.721E-03
DAV:  27    -0.289046642944E+02    0.35714E-05   -0.24035E-04   124   0.778E-02    0.676E-03
DAV:  28    -0.289046789403E+02   -0.14646E-04   -0.24214E-04   124   0.779E-02    0.577E-03
DAV:  29    -0.289046887955E+02   -0.98552E-05   -0.17112E-04   124   0.683E-02    0.491E-03
DAV:  30    -0.289046915817E+02   -0.27861E-05   -0.14242E-04   124   0.612E-02    0.459E-03
DAV:  31    -0.289046983455E+02   -0.67639E-05   -0.12474E-04   124   0.570E-02    0.411E-03
DAV:  32    -0.289047016621E+02   -0.33166E-05   -0.11504E-04   124   0.531E-02    0.392E-03
DAV:  33    -0.289047010886E+02    0.57347E-06   -0.92363E-05   124   0.473E-02
   5 F= -.28904701E+02 E0= -.28904956E+02  d E =-.794585E-03  mag=     0.0198    -0.0954    16.0006
 trial-energy change:   -0.000795  1 .order   -0.000790   -0.001023   -0.000558
 step:   2.8406(harm=  2.8406)  dis= 0.00903  next Energy=   -28.905031 (dE=-0.112E-02)
 bond charge predicted
       N       E                     dE             d eps       ncg     rms          rms(c)
DAV:   1    -0.289019177734E+02    0.27839E-02   -0.37701E-01   124   0.309E+00    0.470E-01
DAV:   2    -0.289047076894E+02   -0.27899E-02   -0.91607E-03   164   0.113E+00    0.402E-01
DAV:   3    -0.289076955264E+02   -0.29878E-02   -0.40834E-02   170   0.237E+00    0.639E-01
DAV:   4    -0.289050731731E+02    0.26224E-02   -0.52042E-02   132   0.186E+00    0.119E-01
DAV:   5    -0.289065449684E+02   -0.14718E-02   -0.42420E-02   124   0.101E+00    0.175E-01
DAV:   6    -0.289057413506E+02    0.80362E-03   -0.22852E-02   124   0.741E-01    0.148E-01
DAV:   7    -0.289054082940E+02    0.33306E-03   -0.34966E-02   124   0.838E-01    0.120E-01
DAV:   8    -0.289056969610E+02   -0.28867E-03   -0.24576E-02   124   0.771E-01    0.134E-01
DAV:   9    -0.289055065861E+02    0.19037E-03   -0.23942E-02   124   0.694E-01    0.116E-01
DAV:  10    -0.289050352514E+02    0.47133E-03   -0.17465E-02   124   0.645E-01    0.874E-02
DAV:  11    -0.289050279582E+02    0.72933E-05   -0.17513E-02   124   0.608E-01    0.736E-02
DAV:  12    -0.289048596129E+02    0.16835E-03   -0.12178E-02   124   0.547E-01    0.523E-02
DAV:  13    -0.289048882183E+02   -0.28605E-04   -0.81898E-03   124   0.448E-01    0.370E-02
DAV:  14    -0.289048753938E+02    0.12824E-04   -0.60651E-03   124   0.382E-01    0.375E-02
DAV:  15    -0.289048397027E+02    0.35691E-04   -0.39158E-03   124   0.313E-01    0.245E-02
DAV:  16    -0.289049136283E+02   -0.73926E-04   -0.26375E-03   124   0.260E-01    0.227E-02
DAV:  17    -0.289049152466E+02   -0.16183E-05   -0.24110E-03   124   0.233E-01    0.244E-02
DAV:  18    -0.289048960618E+02    0.19185E-04   -0.18935E-03   124   0.209E-01    0.198E-02
DAV:  19    -0.289049076931E+02   -0.11631E-04   -0.17355E-03   124   0.208E-01    0.189E-02
DAV:  20    -0.289048891177E+02    0.18575E-04   -0.17010E-03   124   0.202E-01    0.190E-02
DAV:  21    -0.289049149704E+02   -0.25853E-04   -0.13294E-03   124   0.184E-01    0.156E-02
DAV:  22    -0.289049550725E+02   -0.40102E-04   -0.82923E-04   124   0.152E-01    0.127E-02
DAV:  23    -0.289049592350E+02   -0.41626E-05   -0.72014E-04   124   0.134E-01    0.128E-02
DAV:  24    -0.289049823556E+02   -0.23121E-04   -0.61029E-04   124   0.119E-01    0.950E-03
DAV:  25    -0.289049960290E+02   -0.13673E-04   -0.42690E-04   124   0.105E-01    0.798E-03
DAV:  26    -0.289050046164E+02   -0.85874E-05   -0.32405E-04   124   0.886E-02    0.744E-03
DAV:  27    -0.289050014467E+02    0.31696E-05   -0.26959E-04   124   0.828E-02    0.724E-03
DAV:  28    -0.289050112951E+02   -0.98484E-05   -0.25558E-04   124   0.798E-02    0.653E-03
DAV:  29    -0.289050142786E+02   -0.29835E-05   -0.20107E-04   124   0.752E-02    0.544E-03
DAV:  30    -0.289050227323E+02   -0.84537E-05   -0.17418E-04   124   0.677E-02    0.471E-03
DAV:  31    -0.289050304869E+02   -0.77545E-05   -0.14000E-04   124   0.611E-02    0.420E-03
DAV:  32    -0.289050343895E+02   -0.39027E-05   -0.11079E-04   124   0.552E-02    0.386E-03
DAV:  33    -0.289050342847E+02    0.10481E-06   -0.96529E-05   124   0.525E-02
   6 F= -.28905034E+02 E0= -.28905288E+02  d E =-.112778E-02  mag=     0.0201    -0.0954    15.9991
 curvature:  -1.54 expect dE=-0.534E-04 dE for cont linesearch -0.251E-08
 trial: gam= 0.04506 g(F)=  0.348E-04 g(S)=  0.000E+00 ort = 0.118E-05 (trialstep = 0.160E+01)
 search vector abs. value=  0.366E-04
 bond charge predicted
       N       E                     dE             d eps       ncg     rms          rms(c)
DAV:   1    -0.289049158014E+02    0.11859E-03   -0.17972E-02   124   0.666E-01    0.991E-02
DAV:   2    -0.289051241849E+02   -0.20838E-03   -0.41248E-03   124   0.369E-01    0.946E-02
DAV:   3    -0.289075292746E+02   -0.24051E-02   -0.38927E-02   124   0.971E-01    0.220E-01
DAV:   4    -0.289056175265E+02    0.19117E-02   -0.33227E-02   124   0.924E-01    0.120E-01
DAV:   5    -0.289050903108E+02    0.52722E-03   -0.13544E-02   124   0.596E-01    0.642E-02
DAV:   6    -0.289049048345E+02    0.18548E-03   -0.49511E-03   124   0.379E-01    0.336E-02
DAV:   7    -0.289050539797E+02   -0.14915E-03   -0.49619E-03   124   0.333E-01    0.440E-02
DAV:   8    -0.289051452013E+02   -0.91222E-04   -0.51173E-03   124   0.337E-01    0.582E-02
DAV:   9    -0.289050940449E+02    0.51156E-04   -0.44008E-03   124   0.296E-01    0.543E-02
DAV:  10    -0.289049695797E+02    0.12447E-03   -0.47453E-03   124   0.320E-01    0.376E-02
DAV:  11    -0.289049579968E+02    0.11583E-04   -0.53663E-03   124   0.350E-01    0.356E-02
DAV:  12    -0.289049664668E+02   -0.84700E-05   -0.46746E-03   124   0.331E-01    0.295E-02
DAV:  13    -0.289049684394E+02   -0.19726E-05   -0.36258E-03   124   0.300E-01    0.250E-02
DAV:  14    -0.289050095848E+02   -0.41145E-04   -0.28058E-03   124   0.263E-01    0.256E-02
DAV:  15    -0.289050344498E+02   -0.24865E-04   -0.18885E-03   124   0.213E-01    0.162E-02
DAV:  16    -0.289050436713E+02   -0.92215E-05   -0.10502E-03   124   0.164E-01    0.142E-02
DAV:  17    -0.289050369480E+02    0.67233E-05   -0.10463E-03   124   0.154E-01    0.135E-02
DAV:  18    -0.289050476845E+02   -0.10736E-04   -0.70365E-04   124   0.133E-01    0.112E-02
DAV:  19    -0.289050664955E+02   -0.18811E-04   -0.45879E-04   124   0.108E-01    0.925E-03
DAV:  20    -0.289050596614E+02    0.68341E-05   -0.38248E-04   124   0.983E-02    0.769E-03
DAV:  21    -0.289050721559E+02   -0.12494E-04   -0.29581E-04   124   0.880E-02    0.742E-03
DAV:  22    -0.289050806374E+02   -0.84815E-05   -0.23106E-04   124   0.754E-02    0.611E-03
DAV:  23    -0.289050912261E+02   -0.10589E-04   -0.16022E-04   124   0.667E-02    0.437E-03
DAV:  24    -0.289050891642E+02    0.20619E-05   -0.12579E-04   124   0.567E-02    0.501E-03
DAV:  25    -0.289050856966E+02    0.34676E-05   -0.12910E-04   124   0.571E-02    0.422E-03
DAV:  26    -0.289050926944E+02   -0.69979E-05   -0.11776E-04   124   0.550E-02    0.422E-03
DAV:  27    -0.289050902301E+02    0.24643E-05   -0.10207E-04   124   0.527E-02    0.400E-03
DAV:  28    -0.289050963793E+02   -0.61492E-05   -0.96895E-05   124   0.498E-02
   7 F= -.28905096E+02 E0= -.28905353E+02  d E =-.620946E-04  mag=     0.0201    -0.0953    15.9985
 trial-energy change:   -0.000062  1 .order   -0.000023   -0.000056    0.000010
 step:   1.3651(harm=  1.3651)  dis= 0.00093  next Energy=   -28.905058 (dE=-0.238E-04)
 bond charge predicted
       N       E                     dE             d eps       ncg     rms          rms(c)
DAV:   1    -0.289050970790E+02   -0.68489E-05   -0.46063E-04   124   0.110E-01    0.151E-02
DAV:   2    -0.289051288191E+02   -0.31740E-04   -0.26755E-03   124   0.229E-01    0.411E-02
DAV:   3    -0.289054209521E+02   -0.29213E-03   -0.11927E-02   124   0.474E-01    0.723E-02
DAV:   4    -0.289053465913E+02    0.74361E-04   -0.62814E-03   124   0.380E-01    0.743E-02
DAV:   5    -0.289049339090E+02    0.41268E-03   -0.48952E-03   124   0.312E-01    0.276E-02
DAV:   6    -0.289050534873E+02   -0.11958E-03   -0.17405E-03   124   0.227E-01    0.205E-02
DAV:   7    -0.289050830360E+02   -0.29549E-04   -0.79706E-04   124   0.139E-01    0.188E-02
DAV:   8    -0.289050788878E+02    0.41482E-05   -0.54722E-04   124   0.108E-01    0.187E-02
DAV:   9    -0.289050487754E+02    0.30112E-04   -0.53218E-04   124   0.110E-01    0.102E-02
DAV:  10    -0.289050738194E+02   -0.25044E-04   -0.40956E-04   124   0.101E-01    0.771E-03
DAV:  11    -0.289050841156E+02   -0.10296E-04   -0.27721E-04   124   0.855E-02    0.663E-03
DAV:  12    -0.289050854372E+02   -0.13216E-05   -0.24745E-04   124   0.766E-02    0.695E-03
DAV:  13    -0.289050936134E+02   -0.81762E-05   -0.22028E-04   124   0.680E-02    0.654E-03
DAV:  14    -0.289050954118E+02   -0.17984E-05   -0.15307E-04   124   0.603E-02    0.486E-03
DAV:  15    -0.289050830471E+02    0.12365E-04   -0.21126E-04   124   0.710E-02    0.601E-03
DAV:  16    -0.289050793834E+02    0.36636E-05   -0.22381E-04   124   0.746E-02    0.542E-03
DAV:  17    -0.289050846237E+02   -0.52402E-05   -0.23086E-04   124   0.755E-02    0.574E-03
DAV:  18    -0.289050900810E+02   -0.54573E-05   -0.16010E-04   124   0.650E-02    0.438E-03
DAV:  19    -0.289050910895E+02   -0.10086E-05   -0.12523E-04   124   0.580E-02    0.515E-03
DAV:  20    -0.289050971875E+02   -0.60979E-05   -0.95874E-05   124   0.510E-02
   8 F= -.28905097E+02 E0= -.28905354E+02  d E =-.629028E-04  mag=     0.0201    -0.0953    15.9986
 curvature:  -0.72 expect dE=-0.141E-04 dE for cont linesearch -0.194E-09
 trial: gam= 0.56671 g(F)=  0.197E-04 g(S)=  0.000E+00 ort =-0.996E-07 (trialstep = 0.155E+01)
 search vector abs. value=  0.313E-04
 bond charge predicted
       N       E                     dE             d eps       ncg     rms          rms(c)
DAV:   1    -0.289050122127E+02    0.78877E-04   -0.14291E-02   124   0.592E-01    0.876E-02
DAV:   2    -0.289050851251E+02   -0.72912E-04   -0.27267E-03   124   0.295E-01    0.714E-02
DAV:   3    -0.289067053174E+02   -0.16202E-02   -0.31350E-02   124   0.863E-01    0.161E-01
DAV:   4    -0.289053232594E+02    0.13821E-02   -0.28553E-02   124   0.860E-01    0.925E-02
DAV:   5    -0.289052409322E+02    0.82327E-04   -0.91538E-03   124   0.509E-01    0.703E-02
DAV:   6    -0.289049989184E+02    0.24201E-03   -0.53894E-03   124   0.351E-01    0.381E-02
DAV:   7    -0.289050569741E+02   -0.58056E-04   -0.38321E-03   124   0.302E-01    0.498E-02
DAV:   8    -0.289051426051E+02   -0.85631E-04   -0.39265E-03   124   0.271E-01    0.567E-02
DAV:   9    -0.289049446521E+02    0.19795E-03   -0.40135E-03   124   0.300E-01    0.312E-02
DAV:  10    -0.289049821171E+02   -0.37465E-04   -0.26878E-03   124   0.259E-01    0.265E-02
DAV:  11    -0.289050234293E+02   -0.41312E-04   -0.23543E-03   124   0.230E-01    0.226E-02
DAV:  12    -0.289050189767E+02    0.44526E-05   -0.17946E-03   124   0.210E-01    0.176E-02
DAV:  13    -0.289050047160E+02    0.14261E-04   -0.17693E-03   124   0.210E-01    0.200E-02
DAV:  14    -0.289050173176E+02   -0.12602E-04   -0.17279E-03   124   0.205E-01    0.192E-02
DAV:  15    -0.289050332988E+02   -0.15981E-04   -0.14470E-03   124   0.189E-01    0.173E-02
DAV:  16    -0.289050349607E+02   -0.16619E-05   -0.12028E-03   124   0.165E-01    0.156E-02
DAV:  17    -0.289050386985E+02   -0.37378E-05   -0.97865E-04   124   0.152E-01    0.127E-02
DAV:  18    -0.289050624654E+02   -0.23767E-04   -0.65640E-04   124   0.132E-01    0.874E-03
DAV:  19    -0.289050674884E+02   -0.50230E-05   -0.49640E-04   124   0.116E-01    0.112E-02
DAV:  20    -0.289050675956E+02   -0.10718E-06   -0.48281E-04   124   0.106E-01    0.962E-03
DAV:  21    -0.289050776711E+02   -0.10076E-04   -0.45506E-04   124   0.105E-01    0.840E-03
DAV:  22    -0.289050851872E+02   -0.75161E-05   -0.29648E-04   124   0.877E-02    0.642E-03
DAV:  23    -0.289050872895E+02   -0.21023E-05   -0.21010E-04   124   0.777E-02    0.599E-03
DAV:  24    -0.289050915297E+02   -0.42402E-05   -0.15946E-04   124   0.660E-02    0.543E-03
DAV:  25    -0.289050967607E+02   -0.52310E-05   -0.13468E-04   124   0.604E-02    0.410E-03
DAV:  26    -0.289050959907E+02    0.76997E-06   -0.12764E-04   124   0.601E-02    0.460E-03
DAV:  27    -0.289051016703E+02   -0.56796E-05   -0.10523E-04   124   0.526E-02    0.438E-03
DAV:  28    -0.289051030016E+02   -0.13313E-05   -0.96119E-05   124   0.522E-02
   9 F= -.28905103E+02 E0= -.28905361E+02  d E =-.581415E-05  mag=     0.0202    -0.0954    15.9988
 trial-energy change:   -0.000006  1 .order   -0.000024   -0.000030   -0.000018
 step:   3.8510(harm=  3.8510)  dis= 0.00197  next Energy=   -28.905135 (dE=-0.377E-04)
 bond charge predicted
       N       E                     dE             d eps       ncg     rms          rms(c)
DAV:   1    -0.289048710040E+02    0.23067E-03   -0.31157E-02   124   0.874E-01    0.129E-01
DAV:   2    -0.289050554379E+02   -0.18443E-03   -0.29326E-03   132   0.357E-01    0.966E-02
DAV:   3    -0.289070074543E+02   -0.19520E-02   -0.32085E-02   124   0.949E-01    0.203E-01
DAV:   4    -0.289057661283E+02    0.12413E-02   -0.37993E-02   124   0.986E-01    0.126E-01
DAV:   5    -0.289051608477E+02    0.60528E-03   -0.13642E-02   124   0.614E-01    0.722E-02
DAV:   6    -0.289049957598E+02    0.16509E-03   -0.68019E-03   124   0.411E-01    0.491E-02
DAV:   7    -0.289052366388E+02   -0.24088E-03   -0.52655E-03   124   0.335E-01    0.716E-02
DAV:   8    -0.289050577385E+02    0.17890E-03   -0.64411E-03   124   0.362E-01    0.587E-02
DAV:   9    -0.289049613524E+02    0.96386E-04   -0.57311E-03   124   0.369E-01    0.436E-02
DAV:  10    -0.289049681852E+02   -0.68327E-05   -0.41499E-03   124   0.313E-01    0.309E-02
DAV:  11    -0.289049892255E+02   -0.21040E-04   -0.39848E-03   124   0.305E-01    0.307E-02
DAV:  12    -0.289049906802E+02   -0.14547E-05   -0.38564E-03   124   0.293E-01    0.284E-02
DAV:  13    -0.289049608568E+02    0.29823E-04   -0.32622E-03   124   0.280E-01    0.285E-02
DAV:  14    -0.289049693422E+02   -0.84854E-05   -0.28068E-03   124   0.262E-01    0.215E-02
DAV:  15    -0.289050264466E+02   -0.57104E-04   -0.22627E-03   124   0.225E-01    0.212E-02
DAV:  16    -0.289049902301E+02    0.36217E-04   -0.18906E-03   124   0.201E-01    0.196E-02
DAV:  17    -0.289049929967E+02   -0.27666E-05   -0.15532E-03   124   0.196E-01    0.170E-02
DAV:  18    -0.289050310263E+02   -0.38030E-04   -0.11151E-03   124   0.164E-01    0.126E-02
DAV:  19    -0.289050315813E+02   -0.55493E-06   -0.86506E-04   124   0.152E-01    0.136E-02
DAV:  20    -0.289050388046E+02   -0.72233E-05   -0.70756E-04   124   0.130E-01    0.112E-02
DAV:  21    -0.289050566894E+02   -0.17885E-04   -0.47610E-04   124   0.114E-01    0.887E-03
DAV:  22    -0.289050692742E+02   -0.12585E-04   -0.39903E-04   124   0.100E-01    0.888E-03
DAV:  23    -0.289050597854E+02    0.94888E-05   -0.37972E-04   124   0.942E-02    0.891E-03
DAV:  24    -0.289050681772E+02   -0.83918E-05   -0.30786E-04   124   0.871E-02    0.672E-03
DAV:  25    -0.289050840955E+02   -0.15918E-04   -0.25759E-04   124   0.808E-02    0.625E-03
DAV:  26    -0.289050893847E+02   -0.52892E-05   -0.16880E-04   124   0.679E-02    0.495E-03
DAV:  27    -0.289050855595E+02    0.38252E-05   -0.17707E-04   124   0.684E-02    0.597E-03
DAV:  28    -0.289050935105E+02   -0.79510E-05   -0.15376E-04   124   0.623E-02    0.536E-03
DAV:  29    -0.289050926843E+02    0.82623E-06   -0.14636E-04   124   0.616E-02    0.501E-03
DAV:  30    -0.289050913891E+02    0.12952E-05   -0.13548E-04   124   0.602E-02    0.466E-03
DAV:  31    -0.289050876528E+02    0.37363E-05   -0.13750E-04   124   0.602E-02    0.453E-03
DAV:  32    -0.289051071531E+02   -0.19500E-04   -0.99321E-05   124   0.519E-02    0.359E-03
DAV:  33    -0.289051101084E+02   -0.29553E-05   -0.64052E-05   124   0.444E-02
  10 F= -.28905110E+02 E0= -.28905369E+02  d E =-.129209E-04  mag=     0.0203    -0.0953    15.9990
 curvature:  -3.07 expect dE=-0.912E-05 dE for cont linesearch -0.476E-08
 trial: gam= 0.17113 g(F)=  0.297E-05 g(S)=  0.000E+00 ort =-0.220E-06 (trialstep = 0.201E+01)
 search vector abs. value=  0.381E-05
 bond charge predicted
       N       E                     dE             d eps       ncg     rms          rms(c)
DAV:   1    -0.289050848400E+02    0.22313E-04   -0.29312E-03   124   0.272E-01    0.403E-02
DAV:   2    -0.289050753946E+02    0.94454E-05   -0.31773E-03   124   0.274E-01    0.554E-02
DAV:   3    -0.289059943558E+02   -0.91896E-03   -0.26388E-02   124   0.737E-01    0.117E-01
DAV:   4    -0.289051293660E+02    0.86499E-03   -0.19626E-02   124   0.696E-01    0.687E-02
DAV:   5    -0.289051439527E+02   -0.14587E-04   -0.65799E-03   124   0.436E-01    0.556E-02
DAV:   6    -0.289050292052E+02    0.11475E-03   -0.29345E-03   124   0.272E-01    0.299E-02
DAV:   7    -0.289050305080E+02   -0.13028E-05   -0.16894E-03   124   0.204E-01    0.206E-02
DAV:   8    -0.289050514291E+02   -0.20921E-04   -0.12864E-03   124   0.174E-01    0.235E-02
DAV:   9    -0.289050914653E+02   -0.40036E-04   -0.11100E-03   124   0.152E-01    0.301E-02
DAV:  10    -0.289050375589E+02    0.53906E-04   -0.10516E-03   124   0.149E-01    0.197E-02
DAV:  11    -0.289050493538E+02   -0.11795E-04   -0.74964E-04   124   0.138E-01    0.126E-02
DAV:  12    -0.289050758850E+02   -0.26531E-04   -0.55404E-04   124   0.118E-01    0.907E-03
DAV:  13    -0.289050883551E+02   -0.12470E-04   -0.45757E-04   124   0.106E-01    0.882E-03
DAV:  14    -0.289050968856E+02   -0.85305E-05   -0.51227E-04   124   0.104E-01    0.110E-02
DAV:  15    -0.289050567383E+02    0.40147E-04   -0.51998E-04   124   0.108E-01    0.113E-02
DAV:  16    -0.289050749487E+02   -0.18210E-04   -0.45076E-04   124   0.104E-01    0.815E-03
DAV:  17    -0.289050995991E+02   -0.24650E-04   -0.38429E-04   124   0.946E-02    0.800E-03
DAV:  18    -0.289050925174E+02    0.70817E-05   -0.23932E-04   124   0.770E-02    0.679E-03
DAV:  19    -0.289050962103E+02   -0.36930E-05   -0.20970E-04   124   0.715E-02    0.665E-03
DAV:  20    -0.289051108999E+02   -0.14690E-04   -0.14251E-04   124   0.610E-02    0.420E-03
DAV:  21    -0.289051134458E+02   -0.25459E-05   -0.99525E-05   124   0.529E-02
  11 F= -.28905113E+02 E0= -.28905373E+02  d E =-.333742E-05  mag=     0.0202    -0.0953    15.9991
 trial-energy change:   -0.000003  1 .order   -0.000003   -0.000006    0.000000
 step:   1.9309(harm=  1.9309)  dis= 0.00032  next Energy=   -28.905113 (dE=-0.283E-05)
 bond charge predicted
       N       E                     dE             d eps       ncg     rms          rms(c)
DAV:   1    -0.289051163746E+02   -0.54747E-05   -0.82701E-05   124   0.468E-02    0.421E-03
DAV:   2    -0.289051022101E+02    0.14165E-04   -0.32252E-03   124   0.244E-01    0.454E-02
DAV:   3    -0.289050142457E+02    0.87964E-04   -0.27344E-03   124   0.241E-01    0.141E-02
DAV:   4    -0.289050840136E+02   -0.69768E-04   -0.31752E-04   124   0.118E-01    0.852E-03
DAV:   5    -0.289051198440E+02   -0.35830E-04   -0.37191E-04   124   0.902E-02    0.197E-02
DAV:   6    -0.289050614188E+02    0.58425E-04   -0.35162E-04   124   0.880E-02    0.846E-03
DAV:   7    -0.289051012995E+02   -0.39881E-04   -0.28227E-04   124   0.834E-02    0.737E-03
DAV:   8    -0.289051150307E+02   -0.13731E-04   -0.13469E-04   124   0.576E-02    0.959E-03
DAV:   9    -0.289051089330E+02    0.60976E-05   -0.10520E-04   124   0.501E-02    0.657E-03
DAV:  10    -0.289051159911E+02   -0.70581E-05   -0.77766E-05   124   0.449E-02
  12 F= -.28905116E+02 E0= -.28905375E+02  d E =-.588270E-05  mag=     0.0202    -0.0954    15.9991
 curvature:  -1.26 expect dE=-0.207E-06 dE for cont linesearch -0.615E-10
 trial: gam= 0.03563 g(F)=  0.165E-06 g(S)=  0.000E+00 ort =-0.137E-07 (trialstep = 0.200E+01)
 search vector abs. value=  0.169E-06
 bond charge predicted
       N       E                     dE             d eps       ncg     rms          rms(c)
DAV:   1    -0.289051222586E+02   -0.13326E-04   -0.16700E-04   124   0.683E-02    0.887E-03
DAV:   2    -0.289050458871E+02    0.76371E-04   -0.15617E-03   132   0.180E-01    0.351E-02
DAV:   3    -0.289051587728E+02   -0.11289E-03   -0.53128E-03   132   0.315E-01    0.416E-02
DAV:   4    -0.289051195555E+02    0.39217E-04   -0.32443E-03   124   0.270E-01    0.489E-02
DAV:   5    -0.289050357368E+02    0.83819E-04   -0.27128E-03   124   0.226E-01    0.341E-02
DAV:   6    -0.289050220660E+02    0.13671E-04   -0.15830E-03   124   0.207E-01    0.153E-02
DAV:   7    -0.289050879989E+02   -0.65933E-04   -0.55260E-04   124   0.126E-01    0.104E-02
DAV:   8    -0.289051093948E+02   -0.21396E-04   -0.29040E-04   124   0.845E-02    0.149E-02
DAV:   9    -0.289050858765E+02    0.23518E-04   -0.23935E-04   124   0.731E-02    0.978E-03
DAV:  10    -0.289050912508E+02   -0.53742E-05   -0.23552E-04   124   0.736E-02    0.686E-03
DAV:  11    -0.289051116896E+02   -0.20439E-04   -0.15039E-04   124   0.606E-02    0.471E-03
DAV:  12    -0.289051102236E+02    0.14660E-05   -0.10848E-04   124   0.536E-02    0.383E-03
DAV:  13    -0.289051104153E+02   -0.19166E-06   -0.89516E-05   124   0.492E-02
  13 F= -.28905110E+02 E0= -.28905370E+02  d E =0.557584E-05  mag=     0.0202    -0.0954    15.9992
 trial-energy change:    0.000006  1 .order    0.000000    0.000000    0.000000
 step:   4.9537(harm=  4.9537)  dis= 0.00029  next Energy=   -28.905116 (dE=-0.407E-06)
 bond charge predicted
       N       E                     dE             d eps       ncg     rms          rms(c)
DAV:   1    -0.289051105974E+02   -0.37383E-06   -0.35475E-04   124   0.966E-02    0.131E-02
DAV:   2    -0.289050871392E+02    0.23458E-04   -0.31092E-03   124   0.248E-01    0.461E-02
DAV:   3    -0.289052451945E+02   -0.15806E-03   -0.10009E-02   124   0.439E-01    0.595E-02
DAV:   4    -0.289052794815E+02   -0.34287E-04   -0.53599E-03   124   0.348E-01    0.722E-02
DAV:   5    -0.289049828832E+02    0.29660E-03   -0.51839E-03   124   0.315E-01    0.335E-02
DAV:   6    -0.289050865513E+02   -0.10367E-03   -0.22506E-03   124   0.248E-01    0.317E-02
DAV:   7    -0.289050625396E+02    0.24012E-04   -0.92698E-04   124   0.147E-01    0.196E-02
DAV:   8    -0.289050613956E+02    0.11440E-05   -0.62854E-04   124   0.124E-01    0.123E-02
DAV:   9    -0.289050620320E+02   -0.63641E-06   -0.47681E-04   124   0.109E-01    0.101E-02
DAV:  10    -0.289050861889E+02   -0.24157E-04   -0.38388E-04   124   0.982E-02    0.791E-03
DAV:  11    -0.289050958844E+02   -0.96956E-05   -0.24554E-04   124   0.806E-02    0.559E-03
DAV:  12    -0.289051028984E+02   -0.70140E-05   -0.14720E-04   124   0.644E-02    0.534E-03
DAV:  13    -0.289051031211E+02   -0.22269E-06   -0.14706E-04   124   0.610E-02    0.579E-03
DAV:  14    -0.289051017839E+02    0.13373E-05   -0.15746E-04   124   0.605E-02    0.588E-03
DAV:  15    -0.289051052601E+02   -0.34762E-05   -0.12266E-04   124   0.569E-02    0.449E-03
DAV:  16    -0.289051025526E+02    0.27075E-05   -0.13139E-04   124   0.577E-02    0.505E-03
DAV:  17    -0.289051073552E+02   -0.48026E-05   -0.12822E-04   124   0.546E-02    0.475E-03
DAV:  18    -0.289051144112E+02   -0.70559E-05   -0.10276E-04   124   0.515E-02    0.405E-03
DAV:  19    -0.289051148822E+02   -0.47105E-06   -0.81725E-05   124   0.469E-02
  14 F= -.28905115E+02 E0= -.28905374E+02  d E =0.110889E-05  mag=     0.0202    -0.0953    15.9992
 curvature:  -2.54 expect dE=-0.162E-05 dE for cont linesearch -0.210E-08
 trial: gam= 3.92375 g(F)=  0.636E-06 g(S)=  0.000E+00 ort =-0.118E-07 (trialstep = 0.139E+00)
 search vector abs. value=  0.314E-05
 bond charge predicted
       N       E                     dE             d eps       ncg     rms          rms(c)
DAV:   1    -0.289051143804E+02    0.30760E-07   -0.92539E-05   124   0.492E-02    0.495E-03
DAV:   2    -0.289051889025E+02   -0.74522E-04   -0.39131E-03   124   0.265E-01    0.537E-02
DAV:   3    -0.289050102297E+02    0.17867E-03   -0.30865E-03   124   0.261E-01    0.236E-02
DAV:   4    -0.289050631945E+02   -0.52965E-04   -0.57931E-04   124   0.138E-01    0.125E-02
DAV:   5    -0.289050842339E+02   -0.21039E-04   -0.61460E-04   124   0.122E-01    0.167E-02
DAV:   6    -0.289050526645E+02    0.31569E-04   -0.55554E-04   124   0.112E-01    0.123E-02
DAV:   7    -0.289050990880E+02   -0.46423E-04   -0.35930E-04   124   0.900E-02    0.161E-02
DAV:   8    -0.289050839892E+02    0.15099E-04   -0.22574E-04   124   0.753E-02    0.683E-03
DAV:   9    -0.289050995816E+02   -0.15592E-04   -0.14581E-04   124   0.669E-02    0.480E-03
DAV:  10    -0.289051179479E+02   -0.18366E-04   -0.76364E-05   124   0.457E-02    0.356E-03
DAV:  11    -0.289051251555E+02   -0.72076E-05   -0.45466E-05   124   0.359E-02
  15 F= -.28905125E+02 E0= -.28905385E+02  d E =-.102733E-04  mag=     0.0202    -0.0953    15.9992
 ZBRENT: can't locate minimum, use default step
 trial-energy change:   -0.000010  1 .order    0.000000    0.000000    0.000000
 step:   0.5566(harm=  8.4765)  dis= 0.00013  next Energy=   -28.905117 (dE=-0.250E-05)
 bond charge predicted
       N       E                     dE             d eps       ncg     rms          rms(c)
DAV:   1    -0.289051296159E+02   -0.11668E-04   -0.12583E-04   124   0.580E-02    0.769E-03
DAV:   2    -0.289050393289E+02    0.90287E-04   -0.14655E-03   124   0.170E-01    0.314E-02
DAV:   3    -0.289050993280E+02   -0.59999E-04   -0.43334E-03   124   0.289E-01    0.343E-02
DAV:   4    -0.289051412316E+02   -0.41904E-04   -0.27794E-03   124   0.250E-01    0.513E-02
DAV:   5    -0.289050086246E+02    0.13261E-03   -0.22103E-03   124   0.210E-01    0.285E-02
DAV:   6    -0.289050461442E+02   -0.37520E-04   -0.11605E-03   124   0.177E-01    0.102E-02
DAV:   7    -0.289050883556E+02   -0.42211E-04   -0.40439E-04   124   0.112E-01    0.740E-03
DAV:   8    -0.289051045840E+02   -0.16228E-04   -0.26885E-04   124   0.817E-02    0.931E-03
DAV:   9    -0.289051080256E+02   -0.34416E-05   -0.15735E-04   124   0.593E-02    0.110E-02
DAV:  10    -0.289050989967E+02    0.90289E-05   -0.15694E-04   124   0.604E-02    0.654E-03
DAV:  11    -0.289051072113E+02   -0.82146E-05   -0.11610E-04   124   0.565E-02    0.457E-03
DAV:  12    -0.289051138937E+02   -0.66824E-05   -0.83222E-05   124   0.477E-02
  16 F= -.28905114E+02 E0= -.28905373E+02  d E =0.988475E-06  mag=     0.0202    -0.0953    15.9992
 curvature:  -2.21 expect dE=-0.131E-05 dE for cont linesearch -0.213E-06
 ZBRENT: increasing intervall
 opt :   1.3916  next Energy=   -28.905114 (dE= 0.552E-06)
 bond charge predicted
       N       E                     dE             d eps       ncg     rms          rms(c)
DAV:   1    -0.289051123191E+02   -0.51078E-05   -0.48428E-04   124   0.111E-01    0.153E-02
DAV:   2    -0.289052130188E+02   -0.10070E-03   -0.37070E-03   132   0.255E-01    0.506E-02
DAV:   3    -0.289053690937E+02   -0.15607E-03   -0.12783E-02   132   0.469E-01    0.661E-02
DAV:   4    -0.289053106595E+02    0.58434E-04   -0.60145E-03   124   0.376E-01    0.744E-02
DAV:   5    -0.289049907493E+02    0.31991E-03   -0.51216E-03   124   0.318E-01    0.344E-02
DAV:   6    -0.289050689047E+02   -0.78155E-04   -0.19325E-03   124   0.234E-01    0.257E-02
DAV:   7    -0.289050959715E+02   -0.27067E-04   -0.87365E-04   124   0.144E-01    0.233E-02
DAV:   8    -0.289050600132E+02    0.35958E-04   -0.76275E-04   124   0.130E-01    0.142E-02
DAV:   9    -0.289050721442E+02   -0.12131E-04   -0.56724E-04   124   0.117E-01    0.104E-02
DAV:  10    -0.289050895874E+02   -0.17443E-04   -0.40460E-04   124   0.101E-01    0.849E-03
DAV:  11    -0.289051047517E+02   -0.15164E-04   -0.30596E-04   124   0.856E-02    0.653E-03
DAV:  12    -0.289051029050E+02    0.18467E-05   -0.23808E-04   124   0.745E-02    0.620E-03
DAV:  13    -0.289051102292E+02   -0.73242E-05   -0.13756E-04   124   0.609E-02    0.434E-03
DAV:  14    -0.289051110065E+02   -0.77728E-06   -0.14402E-04   124   0.614E-02    0.543E-03
DAV:  15    -0.289051146623E+02   -0.36558E-05   -0.14104E-04   124   0.573E-02    0.522E-03
DAV:  16    -0.289050996046E+02    0.15058E-04   -0.14493E-04   124   0.616E-02    0.538E-03
DAV:  17    -0.289051143032E+02   -0.14699E-04   -0.11596E-04   124   0.543E-02    0.417E-03
DAV:  18    -0.289051139663E+02    0.33698E-06   -0.95170E-05   124   0.520E-02
  17 F= -.28905114E+02 E0= -.28905373E+02  d E =0.915948E-06  mag=     0.0202    -0.0953    15.9992
 curvature:  -4.52 expect dE=-0.270E-05 dE for cont linesearch -0.317E-06
 ZBRENT: increasing intervall
 opt :   3.0615  next Energy=   -28.905115 (dE= 0.267E-06)
 bond charge predicted
       N       E                     dE             d eps       ncg     rms          rms(c)
DAV:   1    -0.289051072674E+02    0.70358E-05   -0.16909E-03   124   0.203E-01    0.295E-02
DAV:   2    -0.289051966178E+02   -0.89350E-04   -0.36782E-03   132   0.261E-01    0.562E-02
DAV:   3    -0.289059919207E+02   -0.79530E-03   -0.25376E-02   132   0.669E-01    0.107E-01
DAV:   4    -0.289049947470E+02    0.99717E-03   -0.12804E-02   124   0.584E-01    0.475E-02
DAV:   5    -0.289051796602E+02   -0.18491E-03   -0.47819E-03   124   0.351E-01    0.470E-02
DAV:   6    -0.289050719077E+02    0.10775E-03   -0.21368E-03   124   0.225E-01    0.305E-02
DAV:   7    -0.289050711503E+02    0.75730E-06   -0.14115E-03   124   0.182E-01    0.191E-02
DAV:   8    -0.289050479285E+02    0.23222E-04   -0.93816E-04   124   0.152E-01    0.164E-02
DAV:   9    -0.289050974513E+02   -0.49523E-04   -0.80822E-04   124   0.131E-01    0.219E-02
DAV:  10    -0.289050872272E+02    0.10224E-04   -0.60056E-04   124   0.112E-01    0.177E-02
DAV:  11    -0.289050613837E+02    0.25844E-04   -0.62630E-04   124   0.122E-01    0.134E-02
DAV:  12    -0.289050832504E+02   -0.21867E-04   -0.37533E-04   124   0.100E-01    0.759E-03
DAV:  13    -0.289051052975E+02   -0.22047E-04   -0.27537E-04   124   0.850E-02    0.710E-03
DAV:  14    -0.289051035663E+02    0.17312E-05   -0.28706E-04   124   0.779E-02    0.872E-03
DAV:  15    -0.289050868183E+02    0.16748E-04   -0.35809E-04   124   0.858E-02    0.836E-03
DAV:  16    -0.289050970888E+02   -0.10271E-04   -0.31407E-04   124   0.848E-02    0.691E-03
DAV:  17    -0.289050950950E+02    0.19938E-05   -0.25108E-04   124   0.813E-02    0.654E-03
DAV:  18    -0.289051059700E+02   -0.10875E-04   -0.20643E-04   124   0.704E-02    0.632E-03
DAV:  19    -0.289051048338E+02    0.11362E-05   -0.15629E-04   124   0.623E-02    0.560E-03
DAV:  20    -0.289051217528E+02   -0.16919E-04   -0.85222E-05   124   0.496E-02    0.366E-03
DAV:  21    -0.289051284947E+02   -0.67419E-05   -0.51613E-05   124   0.387E-02
  18 F= -.28905128E+02 E0= -.28905388E+02  d E =-.136125E-04  mag=     0.0202    -0.0953    15.9991
 curvature:  -9.23 expect dE=-0.734E-05 dE for cont linesearch -0.226E-06
 ZBRENT: increasing intervall
 opt :   6.4012  next Energy=   -28.905129 (dE=-0.139E-04)
 bond charge predicted
       N       E                     dE             d eps       ncg     rms          rms(c)
DAV:   1    -0.289050765115E+02    0.45241E-04   -0.65355E-03   124   0.395E-01    0.583E-02
DAV:   2    -0.289051695335E+02   -0.93022E-04   -0.31844E-03   124   0.274E-01    0.620E-02
DAV:   3    -0.289066802803E+02   -0.15107E-02   -0.31509E-02   124   0.808E-01    0.151E-01
DAV:   4    -0.289053174560E+02    0.13628E-02   -0.21904E-02   124   0.759E-01    0.865E-02
DAV:   5    -0.289051137494E+02    0.20371E-03   -0.80570E-03   124   0.461E-01    0.555E-02
DAV:   6    -0.289050216065E+02    0.92143E-04   -0.41531E-03   124   0.329E-01    0.336E-02
DAV:   7    -0.289051147058E+02   -0.93099E-04   -0.25236E-03   124   0.239E-01    0.450E-02
DAV:   8    -0.289050667765E+02    0.47929E-04   -0.23815E-03   124   0.218E-01    0.377E-02
DAV:   9    -0.289049767431E+02    0.90033E-04   -0.23440E-03   124   0.230E-01    0.218E-02
DAV:  10    -0.289050327170E+02   -0.55974E-04   -0.13682E-03   124   0.189E-01    0.191E-02
DAV:  11    -0.289050531028E+02   -0.20386E-04   -0.10176E-03   124   0.157E-01    0.162E-02
DAV:  12    -0.289050771582E+02   -0.24055E-04   -0.79721E-04   124   0.138E-01    0.117E-02
DAV:  13    -0.289050618248E+02    0.15333E-04   -0.69477E-04   124   0.129E-01    0.127E-02
DAV:  14    -0.289050538043E+02    0.80206E-05   -0.87290E-04   124   0.139E-01    0.150E-02
DAV:  15    -0.289050534451E+02    0.35914E-06   -0.74870E-04   124   0.133E-01    0.115E-02
DAV:  16    -0.289050674456E+02   -0.14001E-04   -0.57919E-04   124   0.122E-01    0.112E-02
DAV:  17    -0.289050719323E+02   -0.44866E-05   -0.52037E-04   124   0.110E-01    0.972E-03
DAV:  18    -0.289050890808E+02   -0.17149E-04   -0.36805E-04   124   0.943E-02    0.827E-03
DAV:  19    -0.289050970642E+02   -0.79834E-05   -0.24900E-04   124   0.789E-02    0.699E-03
DAV:  20    -0.289050973790E+02   -0.31480E-06   -0.23937E-04   124   0.753E-02    0.639E-03
DAV:  21    -0.289050994198E+02   -0.20408E-05   -0.21107E-04   124   0.711E-02    0.534E-03
DAV:  22    -0.289051043401E+02   -0.49203E-05   -0.15290E-04   124   0.624E-02    0.555E-03
DAV:  23    -0.289051047057E+02   -0.36562E-06   -0.12499E-04   124   0.574E-02    0.477E-03
DAV:  24    -0.289051136676E+02   -0.89619E-05   -0.90593E-05   124   0.514E-02
  19 F= -.28905114E+02 E0= -.28905374E+02  d E =0.121461E-05  mag=     0.0203    -0.0953    15.9991
 curvature: -11.63 expect dE=-0.239E-04 dE for cont linesearch -0.134E-07
 trial: gam= 2.68321 g(F)=  0.205E-05 g(S)=  0.000E+00 ort =-0.601E-07 (trialstep = 0.180E+00)
 search vector abs. value=  0.244E-04
 bond charge predicted
       N       E                     dE             d eps       ncg     rms          rms(c)
DAV:   1    -0.289051197722E+02   -0.15067E-04   -0.20554E-04   124   0.750E-02    0.941E-03
DAV:   2    -0.289050971776E+02    0.22595E-04   -0.23600E-03   132   0.212E-01    0.366E-02
DAV:   3    -0.289051484283E+02   -0.51251E-04   -0.69026E-03   132   0.351E-01    0.365E-02
DAV:   4    -0.289051207393E+02    0.27689E-04   -0.38773E-03   124   0.292E-01    0.490E-02
DAV:   5    -0.289050652459E+02    0.55493E-04   -0.24395E-03   124   0.227E-01    0.382E-02
DAV:   6    -0.289050397697E+02    0.25476E-04   -0.13266E-03   124   0.178E-01    0.128E-02
DAV:   7    -0.289051046404E+02   -0.64871E-04   -0.50703E-04   124   0.123E-01    0.104E-02
DAV:   8    -0.289051208379E+02   -0.16197E-04   -0.30997E-04   124   0.814E-02    0.163E-02
DAV:   9    -0.289050949754E+02    0.25863E-04   -0.24730E-04   124   0.756E-02    0.827E-03
DAV:  10    -0.289051083348E+02   -0.13359E-04   -0.22502E-04   124   0.743E-02    0.555E-03
DAV:  11    -0.289051183697E+02   -0.10035E-04   -0.15748E-04   124   0.624E-02    0.549E-03
DAV:  12    -0.289051183234E+02    0.46329E-07   -0.12510E-04   124   0.542E-02    0.472E-03
DAV:  13    -0.289051226504E+02   -0.43270E-05   -0.10223E-04   124   0.507E-02    0.426E-03
DAV:  14    -0.289051262754E+02   -0.36250E-05   -0.89321E-05   124   0.474E-02
  20 F= -.28905126E+02 E0= -.28905386E+02  d E =-.126078E-04  mag=     0.0203    -0.0954    15.9991
 ZBRENT: can't locate minimum, use default step
 trial-energy change:   -0.000013  1 .order    0.000000    0.000000    0.000000
 step:   0.7182(harm= 10.4058)  dis= 0.00045  next Energy=   -28.905124 (dE=-0.984E-05)
 writing wavefunctions
sjob
