 vasp.5.3.2 13Sep12 (build Sep  9 2014 11:37:56) complex                        
  
 executed on             LinuxIFC date 2014.11.17  12:47:07
 running on   16 total cores
 distrk:  each k-point on   16 cores,    1 groups
 distr:  one band on NCORES_PER_BAND=   8 cores,    2 groups


--------------------------------------------------------------------------------------------------------


 INCAR:
 POTCAR:    PAW_PBE Fe 06Sep2000                  
 POTCAR:    PAW_PBE Fe 06Sep2000                  
   VRHFIN =Fe:  d7 s1                                                           
   LEXCH  = PE                                                                  
   EATOM  =   594.3153 eV,   43.6809 Ry                                         
                                                                                
   TITEL  = PAW_PBE Fe 06Sep2000                                                
   LULTRA =        F    use ultrasoft PP ?                                      
   IUNSCR =        1    unscreen: 0-lin 1-nonlin 2-no                           
   RPACOR =    2.000    partial core radius                                     
   POMASS =   55.847; ZVAL   =    8.000    mass and valenz                      
   RCORE  =    2.300    outmost cutoff radius                                   
   RWIGS  =    2.460; RWIGS  =    1.302    wigner-seitz radius (au A)           
   ENMAX  =  267.882; ENMIN  =  200.911 eV                                      
   RCLOC  =    1.701    cutoff for local pot                                    
   LCOR   =        T    correct aug charges                                     
   LPAW   =        T    paw PP                                                  
   EAUG   =  511.368                                                            
   DEXC   =    0.000                                                            
   RMAX   =    2.356    core radius for proj-oper                               
   RAUG   =    1.300    factor for augmentation sphere                          
   RDEP   =    2.442    radius for radial grids                                 
   RDEPT  =    1.890    core radius for aug-charge                              
                                                                                
   Atomic configuration                                                         
    9 entries                                                                   
     n  l   j            E        occ.                                          
     1  0  0.50     -6993.8440   2.0000                                         
     2  0  0.50      -814.6047   2.0000                                         
     2  1  1.50      -693.3689   6.0000                                         
     3  0  0.50       -89.4732   2.0000                                         
     3  1  1.50       -55.6373   6.0000                                         
     3  2  2.50        -3.8151   7.0000                                         
     4  0  0.50        -4.2551   1.0000                                         
     4  1  1.50        -3.4015   0.0000                                         
     4  3  2.50        -1.3606   0.0000                                         
   Description                                                                  
     l       E           TYP  RCUT    TYP  RCUT                                 
     2     -3.8151135     23  2.300                                             
     2     -5.1756961     23  2.300                                             
     0     -4.2550963     23  2.300                                             
     0      7.2035603     23  2.300                                             
     1     -2.7211652     23  2.300                                             
     1     18.4316424     23  2.300                                             
  local pseudopotential read in
  partial core-charges read in
  partial kinetic energy density read in
  atomic valenz-charges read in
  non local Contribution for L=           2  read in
    real space projection operators read in
  non local Contribution for L=           2  read in
    real space projection operators read in
  non local Contribution for L=           0  read in
    real space projection operators read in
  non local Contribution for L=           0  read in
    real space projection operators read in
  non local Contribution for L=           1  read in
    real space projection operators read in
  non local Contribution for L=           1  read in
    real space projection operators read in
    PAW grid and wavefunctions read in
 
   number of l-projection  operators is LMAX  =           6
   number of lm-projection operators is LMMAX =          18
 
  PAW_PBE Fe 06Sep2000                  :
 energy of atom  1       EATOM= -594.3153
 kinetic energy error for atom=    0.0205 (will be added to EATOM!!)
 
 
 POSCAR: New structure                           
  positions in direct lattice
  velocities in cartesian coordinates
 exchange correlation table for  LEXCH =        8
   RHO(1)=    0.500       N(1)  =     2000
   RHO(2)=  100.500       N(2)  =     4000
 


--------------------------------------------------------------------------------------------------------


 ion  position               nearest neighbor table
   1  0.493  0.510  0.667-   5 2.32   3 2.33   4 2.34
   2  0.493  0.510  0.333-   5 2.32   3 2.33   4 2.34
   3  0.584  0.602  0.500-   4 2.27   2 2.33   1 2.33   5 2.73
   4  0.560  0.398  0.500-   3 2.27   5 2.28   2 2.34   1 2.34
   5  0.369  0.479  0.500-   4 2.28   1 2.32   2 2.32   3 2.73
 

IMPORTANT INFORMATION: All symmetrisations will be switched off!
NOSYMM: (Re-)initialisation of all symmetry stuff for point group C_1.

 
 
 KPOINTS: Gamma                                   

Automatic generation of k-mesh.
Space group operators:
 irot       det(A)        alpha          n_x          n_y          n_z        tau_x        tau_y        tau_z
    1     1.000000     0.000000     1.000000     0.000000     0.000000     0.000000     0.000000     0.000000
 
 Subroutine IBZKPT returns following result:
 ===========================================
 
 Found      1 irreducible k-points:
 
 Following reciprocal coordinates:
            Coordinates               Weight
  0.000000  0.000000  0.000000      1.000000
 
 Following cartesian coordinates:
            Coordinates               Weight
  0.000000  0.000000  0.000000      1.000000
 


--------------------------------------------------------------------------------------------------------




 Dimension of arrays:
   k-points           NKPTS =      1   k-points in BZ     NKDIM =      1   number of bands    NBANDS=     62
   number of dos      NEDOS =    301   number of ions     NIONS =      5
   non local maximal  LDIM  =      6   non local SUM 2l+1 LMDIM =     18
   total plane-waves  NPLWV = ******
   max r-space proj   IRMAX =      1   max aug-charges    IRDMAX=  46441
   dimension x,y,z NGX =   120 NGY =  120 NGZ =  120
   dimension x,y,z NGXF=   240 NGYF=  240 NGZF=  240
   support grid    NGXF=   240 NGYF=  240 NGZF=  240
   ions per type =               5
 NGX,Y,Z   is equivalent  to a cutoff of  18.14, 18.14, 18.14 a.u.
 NGXF,Y,Z  is equivalent  to a cutoff of  36.27, 36.27, 36.27 a.u.


 I would recommend the setting:
   dimension x,y,z NGX =    67 NGY =   67 NGZ =   67
 SYSTEM =  LIO                                     
 POSCAR =  New structure                           

 Startparameter for this run:
   NWRITE =      2    write-flag & timer
   PREC   = accura    normal or accurate (medium, high low for compatibility)
   ISTART =      0    job   : 0-new  1-cont  2-samecut
   ICHARG =      2    charge: 1-file 2-atom 10-const
   ISPIN  =      1    spin polarized calculation?
   LNONCOLLINEAR =      T non collinear calculations
   LSORBIT =      F    spin-orbit coupling
   INIWAV =      1    electr: 0-lowe 1-rand  2-diag
   LASPH  =      T    aspherical Exc in radial PAW
   METAGGA=      F    non-selfconsistent MetaGGA calc.

 Electronic Relaxation 1
   ENCUT  =  350.0 eV  25.72 Ry    5.07 a.u.  16.78 16.78 16.78*2*pi/ulx,y,z
   ENINI  =  350.0     initial cutoff
   ENAUG  = 1000.0 eV  augmentation charge cutoff
   NELM   =     60;   NELMIN=  2; NELMDL= -5     # of ELM steps 
   EDIFF  = 0.1E-04   stopping-criterion for ELM
   LREAL  =      F    real-space projection
   NLSPLINE    = F    spline interpolate recip. space projectors
   LCOMPAT=      F    compatible to vasp.4.4
   GGA_COMPAT  = T    GGA compatible to vasp.4.4-vasp.4.6
   LMAXPAW     = -100 max onsite density
   LMAXMIX     =    4 max onsite mixed and CHGCAR
   VOSKOWN=      0    Vosko Wilk Nusair interpolation
   ROPT   =    0.00000
 Ionic relaxation
   EDIFFG = -.3E-04   stopping-criterion for IOM
   NSW    =     20    number of steps for IOM
   NBLOCK =      1;   KBLOCK =     20    inner block; outer block 
   IBRION =      2    ionic relax: 0-MD 1-quasi-New 2-CG
   NFREE  =      1    steps in history (QN), initial steepest desc. (CG)
   ISIF   =      2    stress and relaxation
   IWAVPR =     11    prediction:  0-non 1-charg 2-wave 3-comb
   ISYM   =      0    0-nonsym 1-usesym 2-fastsym
   LCORR  =      T    Harris-Foulkes like correction to forces

   POTIM  = 0.5000    time-step for ionic-motion
   TEIN   =    0.0    initial temperature
   TEBEG  =    0.0;   TEEND  =   0.0 temperature during run
   SMASS  =  -3.00    Nose mass-parameter (am)
   estimated Nose-frequenzy (Omega)   =  0.10E-29 period in steps =****** mass=  -0.277E-26a.u.
   SCALEE = 1.0000    scale energy and forces
   NPACO  =    256;   APACO  = 16.0  distance and # of slots for P.C.
   PSTRESS=    0.0 pullay stress

  Mass of Ions in am
   POMASS =  55.85
  Ionic Valenz
   ZVAL   =   8.00
  Atomic Wigner-Seitz radii
   RWIGS  =  -1.00
  virtual crystal weights 
   VCA    =   1.00
   NELECT =      40.0000    total number of electrons
   NUPDOWN=      -1.0000    fix difference up-down

 DOS related values:
   EMIN   =  10.00;   EMAX   =-10.00  energy-range for DOS
   EFERMI =   0.00
   ISMEAR =     2;   SIGMA  =   0.05  broadening in eV -4-tet -1-fermi 0-gaus

 Electronic relaxation 2 (details)
   IALGO  =     38    algorithm
   LDIAG  =      T    sub-space diagonalisation (order eigenvalues)
   LSUBROT=      T    optimize rotation matrix (better conditioning)
   TURBO    =      0    0=normal 1=particle mesh
   IRESTART =      0    0=no restart 2=restart with 2 vectors
   NREBOOT  =      0    no. of reboots
   NMIN     =      0    reboot dimension
   EREF     =   0.00    reference energy to select bands
   IMIX   =      4    mixing-type and parameters
     AMIX     =   0.40;   BMIX     =  1.00
     AMIX_MAG =   1.60;   BMIX_MAG =  1.00
     AMIN     =   0.10
     WC   =   100.;   INIMIX=   1;  MIXPRE=   1;  MAXMIX= -45

 Intra band minimization:
   WEIMIN = 0.0010     energy-eigenvalue tresh-hold
   EBREAK =  0.12E-07  absolut break condition
   DEPER  =   0.30     relativ break condition  

   TIME   =   0.40     timestep for ELM

  volume/ion in A,a.u.               =     266.20      1796.41
  Fermi-wavevector in a.u.,A,eV,Ry     =   0.508982  0.961836  3.524757  0.259062
  Thomas-Fermi vector in A             =   1.521265
 
 Write flags
   LWAVE  =      T    write WAVECAR
   LCHARG =      T    write CHGCAR
   LVTOT  =      F    write LOCPOT, total local potential
   LVHAR  =      F    write LOCPOT, Hartree potential only
   LELF   =      F    write electronic localiz. function (ELF)
   LORBIT =     11    0 simple, 1 ext, 2 COOP (PROOUT)


 Dipole corrections
   LMONO  =      F    monopole corrections only (constant potential shift)
   LDIPOL =      F    correct potential (dipole corrections)
   IDIPOL =      0    1-x, 2-y, 3-z, 4-all directions 
   EPSILON=  1.0000000 bulk dielectric constant

 Exchange correlation treatment:
   GGA     =    --    GGA type
   LEXCH   =     8    internal setting for exchange type
   VOSKOWN=      0    Vosko Wilk Nusair interpolation
   LHFCALC =     F    Hartree Fock is set to
   LHFONE  =     F    Hartree Fock one center treatment
   AEXX    =    0.0000 exact exchange contribution

 Linear response parameters
   LEPSILON=     F    determine dielectric tensor
   LRPA    =     F    only Hartree local field effects (RPA)
   LNABLA  =     F    use nabla operator in PAW spheres
   LVEL    =     F    velocity operator in full k-point grid
   LINTERFAST=   F  fast interpolation
   KINTER  =     0    interpolate to denser k-point grid
   CSHIFT  =0.1000    complex shift for real part using Kramers Kronig
   OMEGAMAX=  -1.0    maximum frequency
   DEG_THRESHOLD= 0.2000000E-02 threshold for treating states as degnerate
   RTIME   =    0.100 relaxation time in fs

 Orbital magnetization related:
   ORBITALMAG=     F  switch on orbital magnetization
   LCHIMAG   =     F  perturbation theory with respect to B field
   DQ        =  0.001000  dq finite difference perturbation B field



--------------------------------------------------------------------------------------------------------


 conjugate gradient relaxation of ions
 charge density and potential will be updated during run
 non collinear spin polarized calculation
 Variant of blocked Davidson
 Davidson routine will perform the subspace rotation
 perform sub-space diagonalisation
    after iterative eigenvector-optimisation
 modified Broyden-mixing scheme, WC =      100.0
 initial mixing is a Kerker type mixing with AMIX =  0.4000 and BMIX =      1.0000
 Hartree-type preconditioning will be used
 using additional bands           42
 reciprocal scheme for non local part
 use partial core corrections
 calculate Harris-corrections to forces 
   (improved forces if not selfconsistent)
 use gradient corrections 
 use of overlap-Matrix (Vanderbilt PP)
 Methfessel and Paxton  Order N= 2 SIGMA  =   0.05


--------------------------------------------------------------------------------------------------------


  energy-cutoff  :      350.00
  volume of cell :     1331.00
      direct lattice vectors                 reciprocal lattice vectors
    11.000000000  0.000000000  0.000000000     0.090909091  0.000000000  0.000000000
     0.000000000 11.000000000  0.000000000     0.000000000  0.090909091  0.000000000
     0.000000000  0.000000000 11.000000000     0.000000000  0.000000000  0.090909091

  length of vectors
    11.000000000 11.000000000 11.000000000     0.090909091  0.090909091  0.090909091


 
 k-points in units of 2pi/SCALE and weight: Gamma                                   
   0.00000000  0.00000000  0.00000000       1.000
 
 k-points in reciprocal lattice and weights: Gamma                                   
   0.00000000  0.00000000  0.00000000       1.000
 
 position of ions in fractional coordinates (direct lattice) 
   0.49343719  0.51043643  0.66743226
   0.49344688  0.51042860  0.33256261
   0.58429886  0.60237478  0.49999351
   0.55978626  0.39781822  0.50000037
   0.36902956  0.47894200  0.50001128
 
 position of ions in cartesian coordinates  (Angst):
   5.42780909  5.61480078  7.34175487
   5.42791565  5.61471458  3.65818870
   6.42728748  6.62612259  5.49992866
   6.15764888  4.37600038  5.50000407
   4.05932514  5.26836199  5.50012403
 
 Euler angles ALPHA=     0.0000000  BETA=     0.0000000

 transformation matrix from SAXIS to cartesian coordinates
 ---------------------------------------------------------
     1.0000000 m_x     0.0000000 m_y     0.0000000 m_z
     0.0000000 m_x     1.0000000 m_y     0.0000000 m_z
     0.0000000 m_x     0.0000000 m_y     1.0000000 m_z

 transformation matrix from cartesian coordinates to SAXIS
 ---------------------------------------------------------
     1.0000000 m_x     0.0000000 m_y     0.0000000 m_z
     0.0000000 m_x     1.0000000 m_y     0.0000000 m_z
     0.0000000 m_x     0.0000000 m_y     1.0000000 m_z




--------------------------------------------------------------------------------------------------------


 k-point  1 :   0.0000 0.0000 0.0000  plane waves:   39674

 maximum and minimum number of plane-waves per node :      4972     4942

 maximum number of plane-waves:     39674
 maximum index in each direction: 
   IXMAX=   16   IYMAX=   16   IZMAX=   16
   IXMIN=  -16   IYMIN=  -16   IZMIN=  -16

 NGX is ok and might be reduce to  66
 NGY is ok and might be reduce to  66
 NGZ is ok and might be reduce to  66

 parallel 3D FFT for wavefunctions:
    minimum data exchange during FFTs selected (reduces bandwidth)
 parallel 3D FFT for charge:
    minimum data exchange during FFTs selected (reduces bandwidth)


 total amount of memory used by VASP on root node   319243. kBytes
========================================================================

   base      :      30000. kBytes
   nonl-proj :        555. kBytes
   fftplans  :      64964. kBytes
   grid      :     221184. kBytes
   one-center:         62. kBytes
   wavefun   :       2478. kBytes
 
 Broyden mixing: mesh for mixing (old mesh)
   NGX = 33   NGY = 33   NGZ = 33
  (NGX  =240   NGY  =240   NGZ  =240)
  gives a total of  35937 points

 initial charge density was supplied:
 charge density of overlapping atoms calculated
 number of electron      40.0000000 magnetization       0.0240000     -0.0870000     14.7220000
 keeping initial charge density in first step


--------------------------------------------------------------------------------------------------------


 Maximum index for augmentation-charges         2844 (set IRDMAX)


--------------------------------------------------------------------------------------------------------


 First call to EWALD:  gamma=   0.161
 Maximum number of real-space cells 3x 3x 3
 Maximum number of reciprocal cells 3x 3x 3

 FEWALD executed in parallel
    FEWALD:  cpu time    0.05: real time    0.05


----------------------------------------- Iteration    1(   1)  ---------------------------------------


    POTLOK:  cpu time    7.88: real time    7.89
    SETDIJ:  cpu time    0.90: real time    0.90
     EDDAV:  cpu time    4.86: real time    5.02
       DOS:  cpu time    0.00: real time    0.00
    --------------------------------------------
      LOOP:  cpu time   13.64: real time   13.83

 eigenvalue-minimisations  :   124
 total energy-change (2. order) : 0.1973679E+03  (-0.7660061E+03)
 number of electron      40.0000000 magnetization       0.0240000     -0.0870000     14.7220000
 augmentation part       40.0000000 magnetization       0.0240000     -0.0870000     14.7220000

 Free energy of the ion-electron system (eV)
  ---------------------------------------------------
  alpha Z        PSCENC =        12.98155071
  Ewald energy   TEWEN  =       898.33096803
  -1/2 Hartree   DENC   =     -3667.08494571
  -exchange  EXHF       =         0.00000000
  -V(xc)+E(xc)   XCENC  =        17.26280908
  PAW double counting   =      2768.99071882    -2807.61543154
  entropy T*S    EENTRO =         0.00528812
  eigenvalues    EBANDS =         3.02281071
  atomic energy  EATOM  =      2971.47414053
  ---------------------------------------------------
  free energy    TOTEN  =       197.36790875 eV

  energy without entropy =      197.36262063  energy(sigma->0) =      197.36658672


--------------------------------------------------------------------------------------------------------




----------------------------------------- Iteration    1(   2)  ---------------------------------------


     EDDAV:  cpu time    4.86: real time    4.88
       DOS:  cpu time    0.00: real time    0.00
    --------------------------------------------
      LOOP:  cpu time    4.86: real time    4.89

 eigenvalue-minimisations  :   124
 total energy-change (2. order) :-0.1807303E+03  (-0.1593281E+03)
 number of electron      40.0000000 magnetization       0.0240000     -0.0870000     14.7220000
 augmentation part       40.0000000 magnetization       0.0240000     -0.0870000     14.7220000

 Free energy of the ion-electron system (eV)
  ---------------------------------------------------
  alpha Z        PSCENC =        12.98155071
  Ewald energy   TEWEN  =       898.33096803
  -1/2 Hartree   DENC   =     -3667.08494571
  -exchange  EXHF       =         0.00000000
  -V(xc)+E(xc)   XCENC  =        17.26280908
  PAW double counting   =      2768.99071882    -2807.61543154
  entropy T*S    EENTRO =         0.00137650
  eigenvalues    EBANDS =      -177.70361032
  atomic energy  EATOM  =      2971.47414053
  ---------------------------------------------------
  free energy    TOTEN  =        16.63757610 eV

  energy without entropy =       16.63619960  energy(sigma->0) =       16.63723198


--------------------------------------------------------------------------------------------------------




----------------------------------------- Iteration    1(   3)  ---------------------------------------


     EDDAV:  cpu time    6.29: real time    6.34
       DOS:  cpu time    0.00: real time    0.00
    --------------------------------------------
      LOOP:  cpu time    6.29: real time    6.34

 eigenvalue-minimisations  :   176
 total energy-change (2. order) :-0.4285437E+02  (-0.3842713E+02)
 number of electron      40.0000000 magnetization       0.0240000     -0.0870000     14.7220000
 augmentation part       40.0000000 magnetization       0.0240000     -0.0870000     14.7220000

 Free energy of the ion-electron system (eV)
  ---------------------------------------------------
  alpha Z        PSCENC =        12.98155071
  Ewald energy   TEWEN  =       898.33096803
  -1/2 Hartree   DENC   =     -3667.08494571
  -exchange  EXHF       =         0.00000000
  -V(xc)+E(xc)   XCENC  =        17.26280908
  PAW double counting   =      2768.99071882    -2807.61543154
  entropy T*S    EENTRO =         0.00095375
  eigenvalues    EBANDS =      -220.55755806
  atomic energy  EATOM  =      2971.47414053
  ---------------------------------------------------
  free energy    TOTEN  =       -26.21679438 eV

  energy without entropy =      -26.21774813  energy(sigma->0) =      -26.21703282


--------------------------------------------------------------------------------------------------------




----------------------------------------- Iteration    1(   4)  ---------------------------------------


     EDDAV:  cpu time    6.67: real time    6.79
       DOS:  cpu time    0.00: real time    0.00
    --------------------------------------------
      LOOP:  cpu time    6.67: real time    6.79

 eigenvalue-minimisations  :   192
 total energy-change (2. order) :-0.4725206E+01  (-0.4474046E+01)
 number of electron      40.0000000 magnetization       0.0240000     -0.0870000     14.7220000
 augmentation part       40.0000000 magnetization       0.0240000     -0.0870000     14.7220000

 Free energy of the ion-electron system (eV)
  ---------------------------------------------------
  alpha Z        PSCENC =        12.98155071
  Ewald energy   TEWEN  =       898.33096803
  -1/2 Hartree   DENC   =     -3667.08494571
  -exchange  EXHF       =         0.00000000
  -V(xc)+E(xc)   XCENC  =        17.26280908
  PAW double counting   =      2768.99071882    -2807.61543154
  entropy T*S    EENTRO =         0.00136926
  eigenvalues    EBANDS =      -225.28317982
  atomic energy  EATOM  =      2971.47414053
  ---------------------------------------------------
  free energy    TOTEN  =       -30.94200063 eV

  energy without entropy =      -30.94336989  energy(sigma->0) =      -30.94234294


--------------------------------------------------------------------------------------------------------




----------------------------------------- Iteration    1(   5)  ---------------------------------------


     EDDAV:  cpu time    6.76: real time    6.80
       DOS:  cpu time    0.00: real time    0.00
 


 total charge     
 
# of ion     s       p       d       tot
----------------------------------------
  1        0.553   0.262   5.902   6.717
  2        0.553   0.262   5.901   6.715
  3        0.533   0.327   6.174   7.033
  4        0.518   0.386   6.564   7.468
  5        0.533   0.327   6.162   7.022
------------------------------------------------
tot        2.689   1.562  30.703  34.955
 


 magnetization (x)
 
# of ion     s       p       d       tot
----------------------------------------
  1        0.000   0.000   0.004   0.004
  2       -0.000   0.000   0.003   0.003
  3        0.000  -0.000   0.004   0.004
  4        0.000   0.000   0.003   0.004
  5       -0.000   0.000   0.004   0.004
------------------------------------------------
tot        0.000   0.001   0.018   0.019
 


 magnetization (y)
 
# of ion     s       p       d       tot
----------------------------------------
  1       -0.000  -0.000  -0.018  -0.018
  2       -0.001  -0.000  -0.018  -0.019
  3       -0.000  -0.000  -0.016  -0.016
  4        0.000  -0.000  -0.015  -0.015
  5       -0.000  -0.000  -0.016  -0.017
------------------------------------------------
tot       -0.001  -0.001  -0.084  -0.086
 


 magnetization (z)
 
# of ion     s       p       d       tot
----------------------------------------
  1        0.020   0.036   3.080   3.136
  2        0.020   0.036   3.082   3.138
  3        0.055   0.048   2.797   2.900
  4       -0.020   0.073   2.396   2.449
  5        0.058   0.049   2.816   2.923
------------------------------------------------
tot        0.133   0.241  14.172  14.546
 
    CHARGE:  cpu time    1.68: real time    1.70
    MIXING:  cpu time    0.14: real time    0.14
    --------------------------------------------
      LOOP:  cpu time    8.59: real time    8.65

 eigenvalue-minimisations  :   192
 total energy-change (2. order) :-0.1773000E+00  (-0.1695210E+00)
 number of electron      40.0000001 magnetization       0.0234215     -0.0896158     15.2248089
 augmentation part       19.9548642 magnetization       0.0142971     -0.0573878      9.6877698

 Broyden mixing:
  rms(total) = 0.19590E+01    rms(broyden)= 0.19580E+01
  rms(prec ) = 0.22086E+01
  weight for this iteration     100.00

 Free energy of the ion-electron system (eV)
  ---------------------------------------------------
  alpha Z        PSCENC =        12.98155071
  Ewald energy   TEWEN  =       898.33096803
  -1/2 Hartree   DENC   =     -3667.08494571
  -exchange  EXHF       =         0.00000000
  -V(xc)+E(xc)   XCENC  =        17.26280908
  PAW double counting   =      2768.99071882    -2807.61543154
  entropy T*S    EENTRO =         0.00137226
  eigenvalues    EBANDS =      -225.46048277
  atomic energy  EATOM  =      2971.47414053
  ---------------------------------------------------
  free energy    TOTEN  =       -31.11930059 eV

  energy without entropy =      -31.12067284  energy(sigma->0) =      -31.11964365


--------------------------------------------------------------------------------------------------------




----------------------------------------- Iteration    1(   6)  ---------------------------------------


    POTLOK:  cpu time    7.23: real time    7.23
    SETDIJ:  cpu time    0.83: real time    0.83
     EDDAV:  cpu time    7.01: real time    7.05
       DOS:  cpu time    0.00: real time    0.00
    CHARGE:  cpu time    1.71: real time    1.72
    MIXING:  cpu time    0.14: real time    0.14
    --------------------------------------------
      LOOP:  cpu time   16.93: real time   16.99

 eigenvalue-minimisations  :   200
 total energy-change (2. order) :-0.4285377E+00  (-0.2489127E+01)
 number of electron      40.0000001 magnetization       0.0196877     -0.0881764     15.0631354
 augmentation part       21.8854294 magnetization       0.0306921     -0.0644979     11.1483043

 Broyden mixing:
  rms(total) = 0.27177E+01    rms(broyden)= 0.27168E+01
  rms(prec ) = 0.33401E+01
  weight for this iteration     100.00

 eigenvalues of (default mixing * dielectric matrix)
  average eigenvalue GAMMA=   0.3838
  0.3838

 Free energy of the ion-electron system (eV)
  ---------------------------------------------------
  alpha Z        PSCENC =        12.98155071
  Ewald energy   TEWEN  =       898.33096803
  -1/2 Hartree   DENC   =     -3642.62039322
  -exchange  EXHF       =         0.00000000
  -V(xc)+E(xc)   XCENC  =        19.70738162
  PAW double counting   =      2939.19979413    -2974.59969594
  entropy T*S    EENTRO =         0.00102369
  eigenvalues    EBANDS =      -256.02260787
  atomic energy  EATOM  =      2971.47414053
  ---------------------------------------------------
  free energy    TOTEN  =       -31.54783831 eV

  energy without entropy =      -31.54886200  energy(sigma->0) =      -31.54809424


--------------------------------------------------------------------------------------------------------




----------------------------------------- Iteration    1(   7)  ---------------------------------------


    POTLOK:  cpu time    7.28: real time    7.29
    SETDIJ:  cpu time    0.84: real time    0.84
     EDDAV:  cpu time    6.97: real time    7.07
       DOS:  cpu time    0.00: real time    0.00
    CHARGE:  cpu time    1.54: real time    1.56
    MIXING:  cpu time    0.10: real time    0.10
    --------------------------------------------
      LOOP:  cpu time   16.74: real time   16.87

 eigenvalue-minimisations  :   210
 total energy-change (2. order) :-0.3144616E+00  (-0.1773227E+01)
 number of electron      40.0000001 magnetization       0.0174143     -0.0846861     14.7913050
 augmentation part       21.8043647 magnetization       0.0056797     -0.0691637     10.7868335

 Broyden mixing:
  rms(total) = 0.27484E+01    rms(broyden)= 0.27471E+01
  rms(prec ) = 0.34842E+01
  weight for this iteration     100.00

 eigenvalues of (default mixing * dielectric matrix)
  average eigenvalue GAMMA=   0.4219
  0.6717  0.1721

 Free energy of the ion-electron system (eV)
  ---------------------------------------------------
  alpha Z        PSCENC =        12.98155071
  Ewald energy   TEWEN  =       898.33096803
  -1/2 Hartree   DENC   =     -3654.45998914
  -exchange  EXHF       =         0.00000000
  -V(xc)+E(xc)   XCENC  =        18.89732754
  PAW double counting   =      3004.44233429    -3042.32435735
  entropy T*S    EENTRO =         0.00565253
  eigenvalues    EBANDS =      -241.20992707
  atomic energy  EATOM  =      2971.47414053
  ---------------------------------------------------
  free energy    TOTEN  =       -31.86229992 eV

  energy without entropy =      -31.86795245  energy(sigma->0) =      -31.86371306


--------------------------------------------------------------------------------------------------------




----------------------------------------- Iteration    1(   8)  ---------------------------------------


    POTLOK:  cpu time    7.04: real time    7.04
    SETDIJ:  cpu time    0.84: real time    0.84
     EDDAV:  cpu time    7.35: real time    7.39
       DOS:  cpu time    0.00: real time    0.00
    CHARGE:  cpu time    1.52: real time    1.54
    MIXING:  cpu time    0.13: real time    0.13
    --------------------------------------------
      LOOP:  cpu time   16.88: real time   16.95

 eigenvalue-minimisations  :   210
 total energy-change (2. order) : 0.2866746E+01  (-0.7722875E+00)
 number of electron      40.0000000 magnetization       0.0156641     -0.0847949     14.9310507
 augmentation part       20.8769298 magnetization       0.0110522     -0.0565966      9.9799511

 Broyden mixing:
  rms(total) = 0.99477E+00    rms(broyden)= 0.99330E+00
  rms(prec ) = 0.11882E+01
  weight for this iteration     100.00

 eigenvalues of (default mixing * dielectric matrix)
  average eigenvalue GAMMA=   0.4754
  0.9087  0.3546  0.1629

 Free energy of the ion-electron system (eV)
  ---------------------------------------------------
  alpha Z        PSCENC =        12.98155071
  Ewald energy   TEWEN  =       898.33096803
  -1/2 Hartree   DENC   =     -3674.94608901
  -exchange  EXHF       =         0.00000000
  -V(xc)+E(xc)   XCENC  =        18.11766144
  PAW double counting   =      3103.38367055    -3145.12159531
  entropy T*S    EENTRO =         0.00297538
  eigenvalues    EBANDS =      -213.21883635
  atomic energy  EATOM  =      2971.47414053
  ---------------------------------------------------
  free energy    TOTEN  =       -28.99555403 eV

  energy without entropy =      -28.99852941  energy(sigma->0) =      -28.99629788


--------------------------------------------------------------------------------------------------------




----------------------------------------- Iteration    1(   9)  ---------------------------------------


    POTLOK:  cpu time    6.96: real time    6.97
    SETDIJ:  cpu time    0.84: real time    0.84
     EDDAV:  cpu time    7.24: real time    7.26
       DOS:  cpu time    0.00: real time    0.00
    CHARGE:  cpu time    1.49: real time    1.50
    MIXING:  cpu time    0.08: real time    0.08
    --------------------------------------------
      LOOP:  cpu time   16.63: real time   16.67

 eigenvalue-minimisations  :   218
 total energy-change (2. order) :-0.4731927E+00  (-0.4222696E+00)
 number of electron      40.0000001 magnetization       0.0153136     -0.0855322     15.1106595
 augmentation part       20.7903106 magnetization       0.0039049     -0.0558996     10.2047525

 Broyden mixing:
  rms(total) = 0.13175E+01    rms(broyden)= 0.13172E+01
  rms(prec ) = 0.16184E+01
  weight for this iteration     100.00

 eigenvalues of (default mixing * dielectric matrix)
  average eigenvalue GAMMA=   0.4769
  1.1375  0.4078  0.1534  0.2089

 Free energy of the ion-electron system (eV)
  ---------------------------------------------------
  alpha Z        PSCENC =        12.98155071
  Ewald energy   TEWEN  =       898.33096803
  -1/2 Hartree   DENC   =     -3677.28076524
  -exchange  EXHF       =         0.00000000
  -V(xc)+E(xc)   XCENC  =        18.71923436
  PAW double counting   =      3164.10008985    -3207.28385032
  entropy T*S    EENTRO =         0.00361346
  eigenvalues    EBANDS =      -210.51372813
  atomic energy  EATOM  =      2971.47414053
  ---------------------------------------------------
  free energy    TOTEN  =       -29.46874676 eV

  energy without entropy =      -29.47236022  energy(sigma->0) =      -29.46965012


--------------------------------------------------------------------------------------------------------




----------------------------------------- Iteration    1(  10)  ---------------------------------------


    POTLOK:  cpu time    6.99: real time    7.00
    SETDIJ:  cpu time    0.84: real time    0.84
     EDDAV:  cpu time    6.87: real time    6.96
       DOS:  cpu time    0.00: real time    0.00
 


 total charge     
 
# of ion     s       p       d       tot
----------------------------------------
  1        0.542   0.200   6.059   6.802
  2        0.542   0.200   6.063   6.806
  3        0.513   0.251   6.286   7.050
  4        0.456   0.278   6.348   7.082
  5        0.514   0.252   6.267   7.033
------------------------------------------------
tot        2.568   1.181  31.024  34.773
 


 magnetization (x)
 
# of ion     s       p       d       tot
----------------------------------------
  1       -0.001  -0.001   0.002   0.001
  2        0.000   0.000   0.003   0.004
  3        0.000   0.000   0.004   0.005
  4       -0.001  -0.001  -0.001  -0.003
  5       -0.000  -0.001   0.001   0.000
------------------------------------------------
tot       -0.001  -0.002   0.009   0.007
 


 magnetization (y)
 
# of ion     s       p       d       tot
----------------------------------------
  1       -0.000  -0.000  -0.017  -0.017
  2       -0.000  -0.001  -0.019  -0.020
  3       -0.000   0.000  -0.016  -0.015
  4        0.000  -0.000  -0.016  -0.016
  5       -0.000  -0.000  -0.017  -0.017
------------------------------------------------
tot       -0.001  -0.001  -0.084  -0.086
 


 magnetization (z)
 
# of ion     s       p       d       tot
----------------------------------------
  1        0.017   0.002   3.075   3.094
  2        0.017   0.002   3.070   3.090
  3        0.049   0.005   2.864   2.918
  4       -0.052   0.011   2.715   2.674
  5        0.051   0.004   2.886   2.942
------------------------------------------------
tot        0.083   0.024  14.611  14.717
 
    CHARGE:  cpu time    1.43: real time    1.45
    MIXING:  cpu time    0.11: real time    0.11
    --------------------------------------------
      LOOP:  cpu time   16.26: real time   16.38

 eigenvalue-minimisations  :   202
 total energy-change (2. order) : 0.6724607E+00  (-0.1630878E+00)
 number of electron      40.0000000 magnetization       0.0130947     -0.0882123     15.3641773
 augmentation part       20.9324565 magnetization       0.0088730     -0.0579882     10.5715655

 Broyden mixing:
  rms(total) = 0.33959E+00    rms(broyden)= 0.33929E+00
  rms(prec ) = 0.39351E+00
  weight for this iteration     100.00

 eigenvalues of (default mixing * dielectric matrix)
  average eigenvalue GAMMA=   0.6567
  1.8063  0.5593  0.5593  0.1598  0.1987

 Free energy of the ion-electron system (eV)
  ---------------------------------------------------
  alpha Z        PSCENC =        12.98155071
  Ewald energy   TEWEN  =       898.33096803
  -1/2 Hartree   DENC   =     -3674.16262970
  -exchange  EXHF       =         0.00000000
  -V(xc)+E(xc)   XCENC  =        19.21489086
  PAW double counting   =      3199.44427430    -3243.07559777
  entropy T*S    EENTRO =         0.00097165
  eigenvalues    EBANDS =      -213.00485470
  atomic energy  EATOM  =      2971.47414053
  ---------------------------------------------------
  free energy    TOTEN  =       -28.79628610 eV

  energy without entropy =      -28.79725775  energy(sigma->0) =      -28.79652901


--------------------------------------------------------------------------------------------------------




----------------------------------------- Iteration    1(  11)  ---------------------------------------


    POTLOK:  cpu time    6.99: real time    7.00
    SETDIJ:  cpu time    0.84: real time    0.84
     EDDAV:  cpu time    5.58: real time    5.63
       DOS:  cpu time    0.00: real time    0.00
    CHARGE:  cpu time    1.43: real time    1.44
    MIXING:  cpu time    0.11: real time    0.11
    --------------------------------------------
      LOOP:  cpu time   14.95: real time   15.03

 eigenvalue-minimisations  :   140
 total energy-change (2. order) : 0.1309650E-01  (-0.5342152E-01)
 number of electron      40.0000000 magnetization       0.0159285     -0.0896501     15.4598929
 augmentation part       21.0648027 magnetization      -0.0050951     -0.0563251     10.7481755

 Broyden mixing:
  rms(total) = 0.20164E+00    rms(broyden)= 0.20147E+00
  rms(prec ) = 0.22307E+00
  weight for this iteration     100.00

 eigenvalues of (default mixing * dielectric matrix)
  average eigenvalue GAMMA=   0.6368
  1.9502  0.5648  0.5648  0.3823  0.1597  0.1988

 Free energy of the ion-electron system (eV)
  ---------------------------------------------------
  alpha Z        PSCENC =        12.98155071
  Ewald energy   TEWEN  =       898.33096803
  -1/2 Hartree   DENC   =     -3671.85526310
  -exchange  EXHF       =         0.00000000
  -V(xc)+E(xc)   XCENC  =        19.59251877
  PAW double counting   =      3231.90589303    -3276.01090179
  entropy T*S    EENTRO =         0.00061969
  eigenvalues    EBANDS =      -215.20271547
  atomic energy  EATOM  =      2971.47414053
  ---------------------------------------------------
  free energy    TOTEN  =       -28.78318960 eV

  energy without entropy =      -28.78380929  energy(sigma->0) =      -28.78334452


--------------------------------------------------------------------------------------------------------




----------------------------------------- Iteration    1(  12)  ---------------------------------------


    POTLOK:  cpu time    7.00: real time    7.01
    SETDIJ:  cpu time    0.84: real time    0.84
     EDDAV:  cpu time    6.25: real time    6.30
       DOS:  cpu time    0.00: real time    0.00
    CHARGE:  cpu time    1.58: real time    1.60
    MIXING:  cpu time    0.10: real time    0.10
    --------------------------------------------
      LOOP:  cpu time   15.78: real time   15.86

 eigenvalue-minimisations  :   164
 total energy-change (2. order) :-0.8986850E-02  (-0.2545274E-01)
 number of electron      40.0000000 magnetization       0.0178994     -0.0901346     15.6199866
 augmentation part       21.0883090 magnetization       0.0069503     -0.0676566     10.9233888

 Broyden mixing:
  rms(total) = 0.17105E+00    rms(broyden)= 0.17101E+00
  rms(prec ) = 0.19244E+00
  weight for this iteration     100.00

 eigenvalues of (default mixing * dielectric matrix)
  average eigenvalue GAMMA=   0.6576
  2.1925  0.6698  0.6698  0.4983  0.1599  0.2063  0.2063

 Free energy of the ion-electron system (eV)
  ---------------------------------------------------
  alpha Z        PSCENC =        12.98155071
  Ewald energy   TEWEN  =       898.33096803
  -1/2 Hartree   DENC   =     -3671.62496175
  -exchange  EXHF       =         0.00000000
  -V(xc)+E(xc)   XCENC  =        19.69841447
  PAW double counting   =      3242.06784835    -3286.43368338
  entropy T*S    EENTRO =         0.00066129
  eigenvalues    EBANDS =      -215.28711469
  atomic energy  EATOM  =      2971.47414053
  ---------------------------------------------------
  free energy    TOTEN  =       -28.79217645 eV

  energy without entropy =      -28.79283773  energy(sigma->0) =      -28.79234177


--------------------------------------------------------------------------------------------------------




----------------------------------------- Iteration    1(  13)  ---------------------------------------


    POTLOK:  cpu time    7.18: real time    7.18
    SETDIJ:  cpu time    0.86: real time    0.86
     EDDAV:  cpu time    5.96: real time    5.98
       DOS:  cpu time    0.00: real time    0.00
    CHARGE:  cpu time    1.51: real time    1.52
    MIXING:  cpu time    0.09: real time    0.10
    --------------------------------------------
      LOOP:  cpu time   15.60: real time   15.64

 eigenvalue-minimisations  :   172
 total energy-change (2. order) :-0.1394015E-01  (-0.1417868E-01)
 number of electron      40.0000000 magnetization       0.0163298     -0.0955299     15.8359102
 augmentation part       21.1139936 magnetization       0.0087896     -0.0585153     11.1531655

 Broyden mixing:
  rms(total) = 0.12421E+00    rms(broyden)= 0.12415E+00
  rms(prec ) = 0.15009E+00
  weight for this iteration     100.00

 eigenvalues of (default mixing * dielectric matrix)
  average eigenvalue GAMMA=   0.7055
  2.4741  0.7061  0.7061  0.6552  0.5497  0.1598  0.2014  0.1918

 Free energy of the ion-electron system (eV)
  ---------------------------------------------------
  alpha Z        PSCENC =        12.98155071
  Ewald energy   TEWEN  =       898.33096803
  -1/2 Hartree   DENC   =     -3671.36694970
  -exchange  EXHF       =         0.00000000
  -V(xc)+E(xc)   XCENC  =        19.86222057
  PAW double counting   =      3257.41391596    -3302.20427343
  entropy T*S    EENTRO =         0.00076563
  eigenvalues    EBANDS =      -215.29845491
  atomic energy  EATOM  =      2971.47414053
  ---------------------------------------------------
  free energy    TOTEN  =       -28.80611659 eV

  energy without entropy =      -28.80688223  energy(sigma->0) =      -28.80630800


--------------------------------------------------------------------------------------------------------




----------------------------------------- Iteration    1(  14)  ---------------------------------------


    POTLOK:  cpu time    7.14: real time    7.14
    SETDIJ:  cpu time    0.83: real time    0.83
     EDDAV:  cpu time    5.87: real time    5.95
       DOS:  cpu time    0.00: real time    0.00
    CHARGE:  cpu time    1.49: real time    1.50
    MIXING:  cpu time    0.11: real time    0.11
    --------------------------------------------
      LOOP:  cpu time   15.44: real time   15.54

 eigenvalue-minimisations  :   156
 total energy-change (2. order) :-0.3524052E-01  (-0.1546241E-01)
 number of electron      40.0000000 magnetization       0.0178802     -0.0978488     15.9250445
 augmentation part       21.1418971 magnetization      -0.0054612     -0.0655993     11.2385659

 Broyden mixing:
  rms(total) = 0.19446E+00    rms(broyden)= 0.19438E+00
  rms(prec ) = 0.24370E+00
  weight for this iteration     100.00

 eigenvalues of (default mixing * dielectric matrix)
  average eigenvalue GAMMA=   0.7026
  2.6475  0.9577  0.7213  0.7213  0.5210  0.2162  0.2032  0.1597  0.1756

 Free energy of the ion-electron system (eV)
  ---------------------------------------------------
  alpha Z        PSCENC =        12.98155071
  Ewald energy   TEWEN  =       898.33096803
  -1/2 Hartree   DENC   =     -3671.10755734
  -exchange  EXHF       =         0.00000000
  -V(xc)+E(xc)   XCENC  =        20.00245278
  PAW double counting   =      3271.51167480    -3316.74264475
  entropy T*S    EENTRO =         0.00111203
  eigenvalues    EBANDS =      -215.29305391
  atomic energy  EATOM  =      2971.47414053
  ---------------------------------------------------
  free energy    TOTEN  =       -28.84135711 eV

  energy without entropy =      -28.84246914  energy(sigma->0) =      -28.84163512


--------------------------------------------------------------------------------------------------------




----------------------------------------- Iteration    1(  15)  ---------------------------------------


    POTLOK:  cpu time    7.05: real time    7.05
    SETDIJ:  cpu time    0.84: real time    0.84
     EDDAV:  cpu time    6.35: real time    6.38
       DOS:  cpu time    0.00: real time    0.00
 


 total charge     
 
# of ion     s       p       d       tot
----------------------------------------
  1        0.542   0.195   6.231   6.968
  2        0.542   0.195   6.185   6.922
  3        0.500   0.241   6.212   6.953
  4        0.454   0.284   6.362   7.101
  5        0.501   0.242   6.190   6.933
------------------------------------------------
tot        2.538   1.158  31.181  34.877
 


 magnetization (x)
 
# of ion     s       p       d       tot
----------------------------------------
  1       -0.001   0.002   0.004   0.005
  2        0.001   0.000   0.005   0.007
  3       -0.000  -0.001   0.003   0.003
  4        0.001   0.002   0.008   0.011
  5        0.001   0.003   0.006   0.010
------------------------------------------------
tot        0.003   0.006   0.027   0.035
 


 magnetization (y)
 
# of ion     s       p       d       tot
----------------------------------------
  1        0.001   0.001  -0.014  -0.012
  2        0.000   0.001  -0.018  -0.017
  3       -0.000  -0.001  -0.018  -0.019
  4       -0.000   0.000  -0.016  -0.016
  5        0.000   0.001  -0.015  -0.013
------------------------------------------------
tot        0.000   0.003  -0.080  -0.077
 


 magnetization (z)
 
# of ion     s       p       d       tot
----------------------------------------
  1        0.018   0.002   2.963   2.984
  2        0.018   0.001   3.015   3.033
  3        0.051  -0.001   2.936   2.986
  4       -0.051   0.003   2.779   2.731
  5        0.054  -0.001   2.962   3.015
------------------------------------------------
tot        0.090   0.004  14.655  14.748
 
    CHARGE:  cpu time    1.60: real time    1.64
    MIXING:  cpu time    0.12: real time    0.12
    --------------------------------------------
      LOOP:  cpu time   15.96: real time   16.04

 eigenvalue-minimisations  :   180
 total energy-change (2. order) :-0.2876553E-02  (-0.4039748E-02)
 number of electron      40.0000000 magnetization       0.0241901     -0.0959088     15.9711311
 augmentation part       21.1515201 magnetization      -0.0010301     -0.0729862     11.2815969

 Broyden mixing:
  rms(total) = 0.87342E-01    rms(broyden)= 0.87246E-01
  rms(prec ) = 0.10293E+00
  weight for this iteration     100.00

 eigenvalues of (default mixing * dielectric matrix)
  average eigenvalue GAMMA=   0.7148
  2.7581  1.2048  0.7599  0.7599  0.4744  0.4744  0.2050  0.1951  0.1597  0.1564

 Free energy of the ion-electron system (eV)
  ---------------------------------------------------
  alpha Z        PSCENC =        12.98155071
  Ewald energy   TEWEN  =       898.33096803
  -1/2 Hartree   DENC   =     -3671.15821650
  -exchange  EXHF       =         0.00000000
  -V(xc)+E(xc)   XCENC  =        20.01873523
  PAW double counting   =      3275.43056783    -3320.81569549
  entropy T*S    EENTRO =         0.00125166
  eigenvalues    EBANDS =      -215.10753567
  atomic energy  EATOM  =      2971.47414053
  ---------------------------------------------------
  free energy    TOTEN  =       -28.84423366 eV

  energy without entropy =      -28.84548533  energy(sigma->0) =      -28.84454658


--------------------------------------------------------------------------------------------------------




----------------------------------------- Iteration    1(  16)  ---------------------------------------


    POTLOK:  cpu time    7.05: real time    7.05
    SETDIJ:  cpu time    0.84: real time    0.84
     EDDAV:  cpu time    4.71: real time    4.75
       DOS:  cpu time    0.00: real time    0.00
    CHARGE:  cpu time    1.52: real time    1.54
    MIXING:  cpu time    0.10: real time    0.11
    --------------------------------------------
      LOOP:  cpu time   14.23: real time   14.29

 eigenvalue-minimisations  :   124
 total energy-change (2. order) :-0.2140487E-01  (-0.1959279E-01)
 number of electron      40.0000000 magnetization       0.0212993     -0.0946946     15.9850732
 augmentation part       21.1446881 magnetization       0.0251606     -0.0703564     11.2816347

 Broyden mixing:
  rms(total) = 0.54975E-01    rms(broyden)= 0.54946E-01
  rms(prec ) = 0.62795E-01
  weight for this iteration     100.00

 eigenvalues of (default mixing * dielectric matrix)
  average eigenvalue GAMMA=   0.7172
  2.7369  1.3693  0.8094  0.8094  0.5373  0.5373  0.3744  0.1995  0.1995  0.1599
  0.1561

 Free energy of the ion-electron system (eV)
  ---------------------------------------------------
  alpha Z        PSCENC =        12.98155071
  Ewald energy   TEWEN  =       898.33096803
  -1/2 Hartree   DENC   =     -3671.70470207
  -exchange  EXHF       =         0.00000000
  -V(xc)+E(xc)   XCENC  =        19.96560815
  PAW double counting   =      3275.11427063    -3320.57373604
  entropy T*S    EENTRO =         0.00133481
  eigenvalues    EBANDS =      -214.45507328
  atomic energy  EATOM  =      2971.47414053
  ---------------------------------------------------
  free energy    TOTEN  =       -28.86563853 eV

  energy without entropy =      -28.86697334  energy(sigma->0) =      -28.86597223


--------------------------------------------------------------------------------------------------------




----------------------------------------- Iteration    1(  17)  ---------------------------------------


    POTLOK:  cpu time    6.98: real time    6.98
    SETDIJ:  cpu time    0.83: real time    0.83
     EDDAV:  cpu time    4.69: real time    4.70
       DOS:  cpu time    0.00: real time    0.00
    CHARGE:  cpu time    1.52: real time    1.53
    MIXING:  cpu time    0.09: real time    0.09
    --------------------------------------------
      LOOP:  cpu time   14.12: real time   14.15

 eigenvalue-minimisations  :   124
 total energy-change (2. order) :-0.1340163E-01  (-0.1592930E-01)
 number of electron      40.0000000 magnetization       0.0196706     -0.0957289     15.9950354
 augmentation part       21.1346321 magnetization       0.0141123     -0.0633486     11.2824291

 Broyden mixing:
  rms(total) = 0.28672E-01    rms(broyden)= 0.28623E-01
  rms(prec ) = 0.33772E-01
  weight for this iteration     100.00

 eigenvalues of (default mixing * dielectric matrix)
  average eigenvalue GAMMA=   0.7287
  2.6534  1.4648  1.2203  0.6454  0.6454  0.5495  0.5495  0.3004  0.1998  0.1998
  0.1599  0.1564

 Free energy of the ion-electron system (eV)
  ---------------------------------------------------
  alpha Z        PSCENC =        12.98155071
  Ewald energy   TEWEN  =       898.33096803
  -1/2 Hartree   DENC   =     -3672.32141438
  -exchange  EXHF       =         0.00000000
  -V(xc)+E(xc)   XCENC  =        19.91836346
  PAW double counting   =      3273.67828876    -3319.14922565
  entropy T*S    EENTRO =         0.00134496
  eigenvalues    EBANDS =      -213.79305659
  atomic energy  EATOM  =      2971.47414053
  ---------------------------------------------------
  free energy    TOTEN  =       -28.87904016 eV

  energy without entropy =      -28.88038513  energy(sigma->0) =      -28.87937640


--------------------------------------------------------------------------------------------------------




----------------------------------------- Iteration    1(  18)  ---------------------------------------


    POTLOK:  cpu time    6.99: real time    6.99
    SETDIJ:  cpu time    0.84: real time    0.84
     EDDAV:  cpu time    4.83: real time    4.85
       DOS:  cpu time    0.00: real time    0.00
    CHARGE:  cpu time    1.63: real time    1.65
    MIXING:  cpu time    0.10: real time    0.10
    --------------------------------------------
      LOOP:  cpu time   14.40: real time   14.44

 eigenvalue-minimisations  :   124
 total energy-change (2. order) :-0.7652808E-02  (-0.1372019E-01)
 number of electron      40.0000000 magnetization       0.0215532     -0.0949153     16.0035940
 augmentation part       21.1284524 magnetization       0.0046088     -0.0727677     11.2835141

 Broyden mixing:
  rms(total) = 0.33378E-01    rms(broyden)= 0.33328E-01
  rms(prec ) = 0.37494E-01
  weight for this iteration     100.00

 eigenvalues of (default mixing * dielectric matrix)
  average eigenvalue GAMMA=   0.7255
  2.6156  1.7604  1.2732  0.6834  0.6834  0.5537  0.5537  0.3676  0.1599  0.1561
  0.1979  0.2021  0.2239

 Free energy of the ion-electron system (eV)
  ---------------------------------------------------
  alpha Z        PSCENC =        12.98155071
  Ewald energy   TEWEN  =       898.33096803
  -1/2 Hartree   DENC   =     -3672.81680985
  -exchange  EXHF       =         0.00000000
  -V(xc)+E(xc)   XCENC  =        19.90995181
  PAW double counting   =      3272.83332970    -3318.29943688
  entropy T*S    EENTRO =         0.00134131
  eigenvalues    EBANDS =      -213.30172833
  atomic energy  EATOM  =      2971.47414053
  ---------------------------------------------------
  free energy    TOTEN  =       -28.88669297 eV

  energy without entropy =      -28.88803428  energy(sigma->0) =      -28.88702830


--------------------------------------------------------------------------------------------------------




----------------------------------------- Iteration    1(  19)  ---------------------------------------


    POTLOK:  cpu time    7.06: real time    7.06
    SETDIJ:  cpu time    0.83: real time    0.83
     EDDAV:  cpu time    4.65: real time    4.66
       DOS:  cpu time    0.00: real time    0.00
    CHARGE:  cpu time    1.50: real time    1.50
    MIXING:  cpu time    0.15: real time    0.15
    --------------------------------------------
      LOOP:  cpu time   14.20: real time   14.22

 eigenvalue-minimisations  :   124
 total energy-change (2. order) : 0.1328047E-02  (-0.7078772E-02)
 number of electron      40.0000000 magnetization       0.0214722     -0.0946682     16.0094636
 augmentation part       21.1292748 magnetization       0.0165306     -0.0686438     11.3001845

 Broyden mixing:
  rms(total) = 0.18698E-01    rms(broyden)= 0.18683E-01
  rms(prec ) = 0.23547E-01
  weight for this iteration     100.00

 eigenvalues of (default mixing * dielectric matrix)
  average eigenvalue GAMMA=   0.7051
  2.6916  1.7723  1.1551  0.6855  0.6855  0.5652  0.5473  0.5473  0.2527  0.2527
  0.1998  0.1998  0.1599  0.1562

 Free energy of the ion-electron system (eV)
  ---------------------------------------------------
  alpha Z        PSCENC =        12.98155071
  Ewald energy   TEWEN  =       898.33096803
  -1/2 Hartree   DENC   =     -3673.05339509
  -exchange  EXHF       =         0.00000000
  -V(xc)+E(xc)   XCENC  =        19.90942269
  PAW double counting   =      3272.51645542    -3317.97100383
  entropy T*S    EENTRO =         0.00134321
  eigenvalues    EBANDS =      -213.07484660
  atomic energy  EATOM  =      2971.47414053
  ---------------------------------------------------
  free energy    TOTEN  =       -28.88536493 eV

  energy without entropy =      -28.88670813  energy(sigma->0) =      -28.88570073


--------------------------------------------------------------------------------------------------------




----------------------------------------- Iteration    1(  20)  ---------------------------------------


    POTLOK:  cpu time    7.05: real time    7.06
    SETDIJ:  cpu time    0.83: real time    0.83
     EDDAV:  cpu time    4.51: real time    4.58
       DOS:  cpu time    0.00: real time    0.00
 


 total charge     
 
# of ion     s       p       d       tot
----------------------------------------
  1        0.541   0.196   6.189   6.925
  2        0.541   0.196   6.188   6.925
  3        0.499   0.242   6.223   6.964
  4        0.454   0.284   6.349   7.087
  5        0.500   0.242   6.218   6.960
------------------------------------------------
tot        2.534   1.160  31.167  34.861
 


 magnetization (x)
 
# of ion     s       p       d       tot
----------------------------------------
  1       -0.000  -0.001   0.001   0.000
  2       -0.000  -0.000   0.005   0.005
  3       -0.001  -0.001   0.001  -0.001
  4        0.000   0.000   0.004   0.004
  5       -0.000   0.000   0.003   0.003
------------------------------------------------
tot       -0.001  -0.002   0.014   0.012
 


 magnetization (y)
 
# of ion     s       p       d       tot
----------------------------------------
  1       -0.000  -0.000  -0.016  -0.016
  2       -0.000   0.000  -0.019  -0.019
  3       -0.002  -0.001  -0.020  -0.024
  4        0.001   0.001  -0.017  -0.015
  5        0.000  -0.000  -0.015  -0.016
------------------------------------------------
tot       -0.001  -0.001  -0.088  -0.090
 


 magnetization (z)
 
# of ion     s       p       d       tot
----------------------------------------
  1        0.017   0.001   2.999   3.018
  2        0.017   0.002   3.000   3.018
  3        0.050  -0.001   2.921   2.970
  4       -0.051   0.004   2.779   2.732
  5        0.053  -0.001   2.930   2.983
------------------------------------------------
tot        0.086   0.005  14.629  14.721
 
    CHARGE:  cpu time    1.53: real time    1.55
    MIXING:  cpu time    0.13: real time    0.13
    --------------------------------------------
      LOOP:  cpu time   14.06: real time   14.15

 eigenvalue-minimisations  :   124
 total energy-change (2. order) :-0.1881793E-02  (-0.9119140E-02)
 number of electron      40.0000000 magnetization       0.0185074     -0.0953226     16.0109170
 augmentation part       21.1313576 magnetization       0.0228558     -0.0640928     11.3013355

 Broyden mixing:
  rms(total) = 0.18789E-01    rms(broyden)= 0.18769E-01
  rms(prec ) = 0.22512E-01
  weight for this iteration     100.00

 eigenvalues of (default mixing * dielectric matrix)
  average eigenvalue GAMMA=   0.7040
  2.7206  1.7935  1.0260  1.0260  0.6734  0.6734  0.5475  0.5475  0.3904  0.1599
  0.1562  0.2383  0.2067  0.1990  0.2018

 Free energy of the ion-electron system (eV)
  ---------------------------------------------------
  alpha Z        PSCENC =        12.98155071
  Ewald energy   TEWEN  =       898.33096803
  -1/2 Hartree   DENC   =     -3673.22504587
  -exchange  EXHF       =         0.00000000
  -V(xc)+E(xc)   XCENC  =        19.91551234
  PAW double counting   =      3272.47321937    -3317.91613884
  entropy T*S    EENTRO =         0.00134231
  eigenvalues    EBANDS =      -212.92279531
  atomic energy  EATOM  =      2971.47414053
  ---------------------------------------------------
  free energy    TOTEN  =       -28.88724672 eV

  energy without entropy =      -28.88858902  energy(sigma->0) =      -28.88758229


--------------------------------------------------------------------------------------------------------




----------------------------------------- Iteration    1(  21)  ---------------------------------------


    POTLOK:  cpu time    6.97: real time    6.97
    SETDIJ:  cpu time    0.83: real time    0.84
     EDDAV:  cpu time    4.68: real time    4.71
       DOS:  cpu time    0.00: real time    0.00
    CHARGE:  cpu time    1.58: real time    1.60
    MIXING:  cpu time    0.10: real time    0.10
    --------------------------------------------
      LOOP:  cpu time   14.17: real time   14.22

 eigenvalue-minimisations  :   124
 total energy-change (2. order) :-0.8004666E-03  (-0.8881676E-02)
 number of electron      40.0000000 magnetization       0.0187591     -0.0958024     16.0102021
 augmentation part       21.1318461 magnetization       0.0014066     -0.0657623     11.2973144

 Broyden mixing:
  rms(total) = 0.19456E-01    rms(broyden)= 0.19421E-01
  rms(prec ) = 0.22131E-01
  weight for this iteration     100.00

 eigenvalues of (default mixing * dielectric matrix)
  average eigenvalue GAMMA=   0.7016
  2.6374  1.9422  1.0844  1.0844  0.7044  0.7044  0.5833  0.5833  0.5213  0.2480
  0.2480  0.2000  0.2000  0.1599  0.1562  0.1684

 Free energy of the ion-electron system (eV)
  ---------------------------------------------------
  alpha Z        PSCENC =        12.98155071
  Ewald energy   TEWEN  =       898.33096803
  -1/2 Hartree   DENC   =     -3673.43088934
  -exchange  EXHF       =         0.00000000
  -V(xc)+E(xc)   XCENC  =        19.91761009
  PAW double counting   =      3272.11007167    -3317.53538973
  entropy T*S    EENTRO =         0.00134105
  eigenvalues    EBANDS =      -212.73745021
  atomic energy  EATOM  =      2971.47414053
  ---------------------------------------------------
  free energy    TOTEN  =       -28.88804718 eV

  energy without entropy =      -28.88938823  energy(sigma->0) =      -28.88838245


--------------------------------------------------------------------------------------------------------




----------------------------------------- Iteration    1(  22)  ---------------------------------------


    POTLOK:  cpu time    6.99: real time    6.99
    SETDIJ:  cpu time    0.84: real time    0.84
     EDDAV:  cpu time    4.89: real time    4.91
       DOS:  cpu time    0.00: real time    0.00
    CHARGE:  cpu time    1.56: real time    1.58
    MIXING:  cpu time    0.10: real time    0.10
    --------------------------------------------
      LOOP:  cpu time   14.39: real time   14.43

 eigenvalue-minimisations  :   124
 total energy-change (2. order) : 0.1361394E-03  (-0.7104715E-02)
 number of electron      40.0000000 magnetization       0.0203747     -0.0943314     16.0101324
 augmentation part       21.1320277 magnetization       0.0058573     -0.0772304     11.2958991

 Broyden mixing:
  rms(total) = 0.16772E-01    rms(broyden)= 0.16712E-01
  rms(prec ) = 0.18884E-01
  weight for this iteration     100.00

 eigenvalues of (default mixing * dielectric matrix)
  average eigenvalue GAMMA=   0.6840
  2.5252  2.1397  1.2441  0.8517  0.8517  0.6513  0.6513  0.5566  0.5566  0.2711
  0.2611  0.1989  0.2032  0.2032  0.1599  0.1563  0.1460

 Free energy of the ion-electron system (eV)
  ---------------------------------------------------
  alpha Z        PSCENC =        12.98155071
  Ewald energy   TEWEN  =       898.33096803
  -1/2 Hartree   DENC   =     -3673.67323299
  -exchange  EXHF       =         0.00000000
  -V(xc)+E(xc)   XCENC  =        19.91744567
  PAW double counting   =      3271.48968559    -3316.89442706
  entropy T*S    EENTRO =         0.00133707
  eigenvalues    EBANDS =      -212.51537860
  atomic energy  EATOM  =      2971.47414053
  ---------------------------------------------------
  free energy    TOTEN  =       -28.88791104 eV

  energy without entropy =      -28.88924812  energy(sigma->0) =      -28.88824531


--------------------------------------------------------------------------------------------------------




----------------------------------------- Iteration    1(  23)  ---------------------------------------


    POTLOK:  cpu time    6.94: real time    6.94
    SETDIJ:  cpu time    0.83: real time    0.84
     EDDAV:  cpu time    4.87: real time    4.92
       DOS:  cpu time    0.00: real time    0.00
    CHARGE:  cpu time    1.62: real time    1.64
    MIXING:  cpu time    0.12: real time    0.12
    --------------------------------------------
      LOOP:  cpu time   14.39: real time   14.50

 eigenvalue-minimisations  :   124
 total energy-change (2. order) :-0.6301361E-03  (-0.6273767E-02)
 number of electron      40.0000000 magnetization       0.0195297     -0.0947114     16.0118551
 augmentation part       21.1316078 magnetization       0.0275421     -0.0565960     11.2947530

 Broyden mixing:
  rms(total) = 0.18485E-01    rms(broyden)= 0.18417E-01
  rms(prec ) = 0.19948E-01
  weight for this iteration     100.00

 eigenvalues of (default mixing * dielectric matrix)
  average eigenvalue GAMMA=   0.6796
  2.3956  2.3956  1.2816  0.9422  0.9422  0.6434  0.6434  0.5136  0.5136  0.4555
  0.2471  0.2471  0.1999  0.1999  0.1599  0.1561  0.1718  0.1242

 Free energy of the ion-electron system (eV)
  ---------------------------------------------------
  alpha Z        PSCENC =        12.98155071
  Ewald energy   TEWEN  =       898.33096803
  -1/2 Hartree   DENC   =     -3673.85093719
  -exchange  EXHF       =         0.00000000
  -V(xc)+E(xc)   XCENC  =        19.91870349
  PAW double counting   =      3271.03776243    -3316.42967210
  entropy T*S    EENTRO =         0.00133372
  eigenvalues    EBANDS =      -212.35239081
  atomic energy  EATOM  =      2971.47414053
  ---------------------------------------------------
  free energy    TOTEN  =       -28.88854118 eV

  energy without entropy =      -28.88987490  energy(sigma->0) =      -28.88887461


--------------------------------------------------------------------------------------------------------




----------------------------------------- Iteration    1(  24)  ---------------------------------------


    POTLOK:  cpu time    7.05: real time    7.06
    SETDIJ:  cpu time    0.84: real time    0.84
     EDDAV:  cpu time    4.74: real time    4.82
       DOS:  cpu time    0.00: real time    0.00
    CHARGE:  cpu time    1.59: real time    1.61
    MIXING:  cpu time    0.12: real time    0.12
    --------------------------------------------
      LOOP:  cpu time   14.35: real time   14.46

 eigenvalue-minimisations  :   124
 total energy-change (2. order) :-0.4172264E-03  (-0.5706010E-02)
 number of electron      40.0000000 magnetization       0.0176571     -0.0957031     16.0138459
 augmentation part       21.1315946 magnetization       0.0219535     -0.0621306     11.2988958

 Broyden mixing:
  rms(total) = 0.18612E-01    rms(broyden)= 0.18551E-01
  rms(prec ) = 0.19653E-01
  weight for this iteration     100.00

 eigenvalues of (default mixing * dielectric matrix)
  average eigenvalue GAMMA=   0.6866
  2.5082  2.5082  1.2118  1.0742  1.0742  0.6577  0.6577  0.5645  0.5645  0.5190
  0.2599  0.2599  0.2016  0.1974  0.1974  0.1559  0.1599  0.1597  0.1127

 Free energy of the ion-electron system (eV)
  ---------------------------------------------------
  alpha Z        PSCENC =        12.98155071
  Ewald energy   TEWEN  =       898.33096803
  -1/2 Hartree   DENC   =     -3674.08524581
  -exchange  EXHF       =         0.00000000
  -V(xc)+E(xc)   XCENC  =        19.92403872
  PAW double counting   =      3270.54760476    -3315.92675304
  entropy T*S    EENTRO =         0.00132912
  eigenvalues    EBANDS =      -212.13659143
  atomic energy  EATOM  =      2971.47414053
  ---------------------------------------------------
  free energy    TOTEN  =       -28.88895841 eV

  energy without entropy =      -28.89028753  energy(sigma->0) =      -28.88929069


--------------------------------------------------------------------------------------------------------




----------------------------------------- Iteration    1(  25)  ---------------------------------------


    POTLOK:  cpu time    7.01: real time    7.01
    SETDIJ:  cpu time    0.84: real time    0.84
     EDDAV:  cpu time    4.84: real time    4.84
       DOS:  cpu time    0.00: real time    0.00
 


 total charge     
 
# of ion     s       p       d       tot
----------------------------------------
  1        0.540   0.196   6.188   6.924
  2        0.540   0.196   6.185   6.921
  3        0.499   0.242   6.221   6.962
  4        0.454   0.283   6.354   7.092
  5        0.500   0.242   6.217   6.959
------------------------------------------------
tot        2.532   1.159  31.166  34.857
 


 magnetization (x)
 
# of ion     s       p       d       tot
----------------------------------------
  1       -0.000   0.001   0.002   0.003
  2        0.001   0.000   0.006   0.007
  3        0.001   0.000   0.006   0.007
  4        0.001   0.001   0.004   0.005
  5        0.000   0.000   0.003   0.004
------------------------------------------------
tot        0.002   0.003   0.021   0.026
 


 magnetization (y)
 
# of ion     s       p       d       tot
----------------------------------------
  1        0.001   0.000  -0.017  -0.016
  2       -0.001   0.001  -0.017  -0.017
  3        0.000   0.001  -0.016  -0.016
  4       -0.000  -0.000  -0.016  -0.017
  5        0.000   0.000  -0.016  -0.016
------------------------------------------------
tot        0.000   0.001  -0.084  -0.082
 


 magnetization (z)
 
# of ion     s       p       d       tot
----------------------------------------
  1        0.017   0.001   3.000   3.018
  2        0.017   0.001   3.003   3.021
  3        0.050  -0.001   2.922   2.971
  4       -0.051   0.003   2.775   2.727
  5        0.053  -0.001   2.930   2.982
------------------------------------------------
tot        0.085   0.004  14.629  14.719
 
    CHARGE:  cpu time    1.55: real time    1.57
    MIXING:  cpu time    0.12: real time    0.12
    --------------------------------------------
      LOOP:  cpu time   14.36: real time   14.39

 eigenvalue-minimisations  :   124
 total energy-change (2. order) : 0.1155539E-02  (-0.5102987E-02)
 number of electron      40.0000000 magnetization       0.0180265     -0.0956204     16.0139462
 augmentation part       21.1323030 magnetization       0.0026094     -0.0701412     11.3039783

 Broyden mixing:
  rms(total) = 0.12349E-01    rms(broyden)= 0.12298E-01
  rms(prec ) = 0.13530E-01
  weight for this iteration     100.00

 eigenvalues of (default mixing * dielectric matrix)
  average eigenvalue GAMMA=   0.6808
  2.5848  2.5848  1.2008  1.2008  1.0237  0.6827  0.6827  0.5892  0.5892  0.5278
  0.3341  0.2332  0.2332  0.2002  0.2002  0.1683  0.1599  0.1559  0.1559  0.1090

 Free energy of the ion-electron system (eV)
  ---------------------------------------------------
  alpha Z        PSCENC =        12.98155071
  Ewald energy   TEWEN  =       898.33096803
  -1/2 Hartree   DENC   =     -3674.30954970
  -exchange  EXHF       =         0.00000000
  -V(xc)+E(xc)   XCENC  =        19.92821203
  PAW double counting   =      3270.17180412    -3315.54058472
  entropy T*S    EENTRO =         0.00132793
  eigenvalues    EBANDS =      -211.92567180
  atomic energy  EATOM  =      2971.47414053
  ---------------------------------------------------
  free energy    TOTEN  =       -28.88780287 eV

  energy without entropy =      -28.88913080  energy(sigma->0) =      -28.88813485


--------------------------------------------------------------------------------------------------------




----------------------------------------- Iteration    1(  26)  ---------------------------------------


    POTLOK:  cpu time    6.98: real time    6.98
    SETDIJ:  cpu time    0.84: real time    0.84
     EDDAV:  cpu time    4.56: real time    4.57
       DOS:  cpu time    0.00: real time    0.00
    CHARGE:  cpu time    1.63: real time    1.64
    MIXING:  cpu time    0.21: real time    0.21
    --------------------------------------------
      LOOP:  cpu time   14.22: real time   14.24

 eigenvalue-minimisations  :   124
 total energy-change (2. order) :-0.5249794E-03  (-0.4135881E-02)
 number of electron      40.0000000 magnetization       0.0179847     -0.0952236     16.0130147
 augmentation part       21.1322907 magnetization       0.0121885     -0.0713379     11.3030347

 Broyden mixing:
  rms(total) = 0.12034E-01    rms(broyden)= 0.11999E-01
  rms(prec ) = 0.12873E-01
  weight for this iteration     100.00

 eigenvalues of (default mixing * dielectric matrix)
  average eigenvalue GAMMA=   0.6775
  2.6556  2.6556  1.2781  1.2781  0.8985  0.7403  0.7403  0.6047  0.6047  0.5188
  0.4448  0.2494  0.2494  0.2000  0.2000  0.1599  0.1562  0.1755  0.1755  0.1361
  0.1052

 Free energy of the ion-electron system (eV)
  ---------------------------------------------------
  alpha Z        PSCENC =        12.98155071
  Ewald energy   TEWEN  =       898.33096803
  -1/2 Hartree   DENC   =     -3674.45372395
  -exchange  EXHF       =         0.00000000
  -V(xc)+E(xc)   XCENC  =        19.93107160
  PAW double counting   =      3270.01811696    -3315.38285251
  entropy T*S    EENTRO =         0.00132731
  eigenvalues    EBANDS =      -211.78892653
  atomic energy  EATOM  =      2971.47414053
  ---------------------------------------------------
  free energy    TOTEN  =       -28.88832785 eV

  energy without entropy =      -28.88965516  energy(sigma->0) =      -28.88865968


--------------------------------------------------------------------------------------------------------




----------------------------------------- Iteration    1(  27)  ---------------------------------------


    POTLOK:  cpu time    7.21: real time    7.21
    SETDIJ:  cpu time    0.84: real time    0.84
     EDDAV:  cpu time    5.08: real time    5.15
       DOS:  cpu time    0.00: real time    0.00
    CHARGE:  cpu time    1.58: real time    1.60
    MIXING:  cpu time    0.11: real time    0.11
    --------------------------------------------
      LOOP:  cpu time   14.82: real time   14.92

 eigenvalue-minimisations  :   124
 total energy-change (2. order) : 0.1630342E-03  (-0.3007800E-02)
 number of electron      40.0000000 magnetization       0.0184666     -0.0951684     16.0111062
 augmentation part       21.1322728 magnetization       0.0095819     -0.0661420     11.3029830

 Broyden mixing:
  rms(total) = 0.91875E-02    rms(broyden)= 0.91549E-02
  rms(prec ) = 0.99380E-02
  weight for this iteration     100.00

 eigenvalues of (default mixing * dielectric matrix)
  average eigenvalue GAMMA=   0.6737
  2.8358  2.6111  1.3433  1.3433  0.8263  0.8263  0.6887  0.6338  0.6338  0.5302
  0.5302  0.2642  0.2642  0.2005  0.2013  0.2013  0.1822  0.1562  0.1599  0.1611
  0.1255  0.1032

 Free energy of the ion-electron system (eV)
  ---------------------------------------------------
  alpha Z        PSCENC =        12.98155071
  Ewald energy   TEWEN  =       898.33096803
  -1/2 Hartree   DENC   =     -3674.59082870
  -exchange  EXHF       =         0.00000000
  -V(xc)+E(xc)   XCENC  =        19.93323950
  PAW double counting   =      3269.88526729    -3315.24734796
  entropy T*S    EENTRO =         0.00132772
  eigenvalues    EBANDS =      -211.65648193
  atomic energy  EATOM  =      2971.47414053
  ---------------------------------------------------
  free energy    TOTEN  =       -28.88816481 eV

  energy without entropy =      -28.88949253  energy(sigma->0) =      -28.88849674


--------------------------------------------------------------------------------------------------------




----------------------------------------- Iteration    1(  28)  ---------------------------------------


    POTLOK:  cpu time    7.13: real time    7.14
    SETDIJ:  cpu time    0.83: real time    0.83
     EDDAV:  cpu time    4.41: real time    4.42
       DOS:  cpu time    0.00: real time    0.00
    CHARGE:  cpu time    1.52: real time    1.54
    MIXING:  cpu time    0.13: real time    0.13
    --------------------------------------------
      LOOP:  cpu time   14.03: real time   14.06

 eigenvalue-minimisations  :   124
 total energy-change (2. order) :-0.4867811E-03  (-0.2503765E-02)
 number of electron      40.0000000 magnetization       0.0179703     -0.0958415     16.0088425
 augmentation part       21.1320069 magnetization       0.0209370     -0.0610965     11.3013587

 Broyden mixing:
  rms(total) = 0.82082E-02    rms(broyden)= 0.81853E-02
  rms(prec ) = 0.88720E-02
  weight for this iteration     100.00

 eigenvalues of (default mixing * dielectric matrix)
  average eigenvalue GAMMA=   0.6642
  2.9298  2.6034  1.3545  1.3545  0.8838  0.8838  0.6363  0.6363  0.6559  0.5372
  0.5372  0.3378  0.2451  0.2451  0.2003  0.2003  0.1753  0.1753  0.1599  0.1563
  0.1494  0.1183  0.1012

 Free energy of the ion-electron system (eV)
  ---------------------------------------------------
  alpha Z        PSCENC =        12.98155071
  Ewald energy   TEWEN  =       898.33096803
  -1/2 Hartree   DENC   =     -3674.70433216
  -exchange  EXHF       =         0.00000000
  -V(xc)+E(xc)   XCENC  =        19.93386508
  PAW double counting   =      3269.76817181    -3315.12805462
  entropy T*S    EENTRO =         0.00132868
  eigenvalues    EBANDS =      -211.54628965
  atomic energy  EATOM  =      2971.47414053
  ---------------------------------------------------
  free energy    TOTEN  =       -28.88865159 eV

  energy without entropy =      -28.88998028  energy(sigma->0) =      -28.88898377


--------------------------------------------------------------------------------------------------------




----------------------------------------- Iteration    1(  29)  ---------------------------------------


    POTLOK:  cpu time    6.99: real time    7.00
    SETDIJ:  cpu time    0.85: real time    0.85
     EDDAV:  cpu time    4.71: real time    4.72
       DOS:  cpu time    0.00: real time    0.00
    CHARGE:  cpu time    1.46: real time    1.48
    MIXING:  cpu time    0.12: real time    0.12
    --------------------------------------------
      LOOP:  cpu time   14.14: real time   14.18

 eigenvalue-minimisations  :   124
 total energy-change (2. order) :-0.6645892E-03  (-0.2447063E-02)
 number of electron      40.0000000 magnetization       0.0178548     -0.0960103     16.0057420
 augmentation part       21.1314941 magnetization       0.0108530     -0.0705027     11.2979467

 Broyden mixing:
  rms(total) = 0.94455E-02    rms(broyden)= 0.94171E-02
  rms(prec ) = 0.98736E-02
  weight for this iteration     100.00

 eigenvalues of (default mixing * dielectric matrix)
  average eigenvalue GAMMA=   0.6649
  3.0363  2.6129  1.3933  1.3933  0.9400  0.9400  0.6522  0.6522  0.6748  0.5206
  0.5206  0.5086  0.2589  0.2589  0.2001  0.2001  0.1929  0.1929  0.1599  0.1562
  0.1551  0.1303  0.1090  0.0981

 Free energy of the ion-electron system (eV)
  ---------------------------------------------------
  alpha Z        PSCENC =        12.98155071
  Ewald energy   TEWEN  =       898.33096803
  -1/2 Hartree   DENC   =     -3674.78780269
  -exchange  EXHF       =         0.00000000
  -V(xc)+E(xc)   XCENC  =        19.93415460
  PAW double counting   =      3269.67533711    -3315.03418107
  entropy T*S    EENTRO =         0.00132934
  eigenvalues    EBANDS =      -211.46481276
  atomic energy  EATOM  =      2971.47414053
  ---------------------------------------------------
  free energy    TOTEN  =       -28.88931618 eV

  energy without entropy =      -28.89064552  energy(sigma->0) =      -28.88964852


--------------------------------------------------------------------------------------------------------




[...]
  0.039   0.082  -0.040   2.645  -0.112  -0.070  -0.079   0.041  -1.311   0.128   0.121  -0.015   0.040  -0.021   0.165  -0.001
  0.007  -0.040   0.001  -0.112   2.596  -0.027   0.072   0.010   0.139  -0.982  -0.024  -0.012  -0.009  -0.001  -0.013  -0.007
 -1.014  -0.044   0.011  -0.070  -0.027   0.682  -0.026  -0.036   0.066   0.002   0.099   0.004   0.029  -0.005  -0.020  -0.001
 -0.056  -1.230  -0.074  -0.079   0.072  -0.026   1.292   0.072   0.116  -0.066   0.173  -0.018  -0.279  -0.048  -0.036   0.012
  0.018  -0.072  -1.513   0.041   0.010  -0.036   0.072   1.515  -0.041  -0.020   0.500  -0.085   0.001  -0.369  -0.001   0.002
 -0.070  -0.079   0.042  -1.311   0.139   0.066   0.116  -0.041   1.416  -0.051  -0.100   0.010  -0.036   0.027  -0.318   0.001
 -0.026   0.072   0.006   0.128  -0.982   0.002  -0.066  -0.020  -0.051   0.679   0.056   0.002   0.020  -0.003  -0.006   0.001
 -0.041  -0.210  -0.517   0.121  -0.024   0.099   0.173   0.500  -0.100   0.056   2.029  -0.094  -0.036  -0.341   0.021   0.006
 -0.021   0.026   0.069  -0.015  -0.012   0.004  -0.018  -0.085   0.010   0.002  -0.094   0.015   0.003   0.037  -0.001   0.000
  0.003   0.124   0.012   0.040  -0.009   0.029  -0.279   0.001  -0.036   0.020  -0.036   0.003   0.084   0.007   0.014  -0.008
 -0.003   0.038   0.256  -0.021  -0.001  -0.005  -0.048  -0.369   0.027  -0.003  -0.341   0.037   0.007   0.138  -0.004  -0.001
  0.008   0.040  -0.007   0.165  -0.013  -0.020  -0.036  -0.001  -0.318  -0.006   0.021  -0.001   0.014  -0.004   0.099   0.000
 -0.004   0.034  -0.006  -0.001  -0.007  -0.001   0.012   0.002   0.001   0.001   0.006   0.000  -0.008  -0.001   0.000   0.002
 -0.002   0.000   0.020   0.000  -0.001   0.001   0.006   0.025  -0.003   0.001   0.048  -0.004  -0.001  -0.015   0.001   0.000
  0.007  -0.001   0.004   0.033  -0.003  -0.001   0.001  -0.001   0.012   0.001  -0.003   0.000   0.000   0.001  -0.007   0.000
 total augmentation occupancy for first ion, spin component:           2
  0.003   0.000   0.000   0.000   0.000  -0.001   0.000   0.000   0.000   0.000   0.000   0.000   0.000   0.000   0.000   0.000
  0.000   0.003   0.000   0.000   0.000   0.000  -0.001   0.000   0.000   0.000   0.000   0.000   0.000   0.000   0.000   0.000
  0.000   0.000   0.003   0.000   0.000   0.000   0.000  -0.001   0.000   0.000   0.000   0.000   0.000   0.000   0.000   0.000
  0.000   0.000   0.000   0.003   0.000   0.000   0.000   0.000  -0.001   0.000   0.000   0.000   0.000   0.000   0.000   0.000
  0.000   0.000   0.000   0.000   0.003   0.000   0.000   0.000   0.000  -0.001   0.000   0.000   0.000   0.000   0.000   0.000
 -0.001   0.000   0.000   0.000   0.000   0.000   0.000   0.000   0.000   0.000   0.000   0.000   0.000   0.000   0.000   0.000
  0.000  -0.001   0.000   0.000   0.000   0.000   0.000   0.000   0.000   0.000   0.000   0.000   0.000   0.000   0.000   0.000
  0.000   0.000  -0.001   0.000   0.000   0.000   0.000   0.000   0.000   0.000   0.000   0.000   0.000   0.000   0.000   0.000
  0.000   0.000   0.000  -0.001   0.000   0.000   0.000   0.000   0.000   0.000   0.000   0.000   0.000   0.000   0.000   0.000
  0.000   0.000   0.000   0.000  -0.001   0.000   0.000   0.000   0.000   0.000   0.000   0.000   0.000   0.000   0.000   0.000
  0.000   0.000   0.000   0.000   0.000   0.000   0.000   0.000   0.000   0.000   0.000   0.000   0.000   0.000   0.000   0.000
  0.000   0.000   0.000   0.000   0.000   0.000   0.000   0.000   0.000   0.000   0.000   0.000   0.000   0.000   0.000   0.000
  0.000   0.000   0.000   0.000   0.000   0.000   0.000   0.000   0.000   0.000   0.000   0.000   0.000   0.000   0.000   0.000
  0.000   0.000   0.000   0.000   0.000   0.000   0.000   0.000   0.000   0.000   0.000   0.000   0.000   0.000   0.000   0.000
  0.000   0.000   0.000   0.000   0.000   0.000   0.000   0.000   0.000   0.000   0.000   0.000   0.000   0.000   0.000   0.000
  0.000   0.000   0.000   0.000   0.000   0.000   0.000   0.000   0.000   0.000   0.000   0.000   0.000   0.000   0.000   0.000
  0.000   0.000   0.000   0.000   0.000   0.000   0.000   0.000   0.000   0.000   0.000   0.000   0.000   0.000   0.000   0.000
  0.000   0.000   0.000   0.000   0.000   0.000   0.000   0.000   0.000   0.000   0.000   0.000   0.000   0.000   0.000   0.000
 total augmentation occupancy for first ion, spin component:           3
 -0.015   0.000   0.000   0.000   0.000   0.006   0.000   0.000   0.000   0.000   0.000   0.000   0.000   0.000   0.000   0.000
  0.000  -0.015   0.000   0.000   0.000   0.000   0.006   0.000   0.000   0.000   0.000   0.000   0.000   0.000   0.000   0.000
  0.000   0.000  -0.014   0.000   0.000   0.000   0.000   0.005   0.000   0.000  -0.001   0.000   0.000   0.000   0.000   0.000
  0.000   0.000   0.000  -0.015   0.001   0.000   0.000   0.000   0.006   0.000   0.000   0.000   0.000   0.000  -0.001   0.000
  0.000   0.000   0.000   0.001  -0.015   0.000   0.000   0.000   0.000   0.006   0.000   0.000   0.000   0.000   0.000   0.000
  0.006   0.000   0.000   0.000   0.000  -0.002   0.000   0.000   0.000   0.000   0.000   0.000   0.000   0.000   0.000   0.000
  0.000   0.006   0.000   0.000   0.000   0.000  -0.001   0.000   0.000   0.000   0.000   0.000   0.000   0.000   0.000   0.000
  0.000   0.000   0.005   0.000   0.000   0.000   0.000   0.000   0.000   0.000   0.001   0.000   0.000   0.000   0.000   0.000
  0.000   0.000   0.000   0.006   0.000   0.000   0.000   0.000  -0.001   0.000   0.000   0.000   0.000   0.000   0.000   0.000
  0.000   0.000   0.000   0.000   0.006   0.000   0.000   0.000   0.000  -0.002   0.000   0.000   0.000   0.000   0.000   0.000
  0.000   0.000  -0.001   0.000   0.000   0.000   0.000   0.001   0.000   0.000   0.002  -0.001   0.000  -0.001   0.000   0.000
  0.000   0.000   0.000   0.000   0.000   0.000   0.000   0.000   0.000   0.000  -0.001   0.000   0.000   0.000   0.000   0.000
  0.000   0.000   0.000   0.000   0.000   0.000   0.000   0.000   0.000   0.000   0.000   0.000   0.000   0.000   0.000   0.000
  0.000   0.000   0.000   0.000   0.000   0.000   0.000   0.000   0.000   0.000  -0.001   0.000   0.000   0.000   0.000   0.000
  0.000   0.000   0.000  -0.001   0.000   0.000   0.000   0.000   0.000   0.000   0.000   0.000   0.000   0.000   0.000   0.000
  0.000   0.000   0.000   0.000   0.000   0.000   0.000   0.000   0.000   0.000   0.000   0.000   0.000   0.000   0.000   0.000
  0.000   0.000   0.000   0.000   0.000   0.000   0.000   0.000   0.000   0.000   0.000   0.000   0.000   0.000   0.000   0.000
  0.000   0.000   0.000   0.000   0.000   0.000   0.000   0.000   0.000   0.000   0.000   0.000   0.000   0.000   0.000   0.000
 total augmentation occupancy for first ion, spin component:           4
  2.571   0.075   0.002   0.046   0.033  -1.062   0.018  -0.005  -0.013  -0.012  -0.026  -0.023  -0.019  -0.002   0.000  -0.002
  0.075   2.445   0.008   0.069  -0.048   0.004  -0.994   0.000  -0.072   0.011  -0.034   0.008   0.059  -0.003   0.032   0.042
  0.002   0.008   2.404  -0.004   0.001   0.000   0.002  -0.904  -0.001   0.000   0.199  -0.007  -0.001   0.049   0.000  -0.004
  0.046   0.069  -0.004   2.513  -0.133  -0.010  -0.072   0.000  -1.068   0.010   0.021  -0.005   0.033   0.002   0.092  -0.001
  0.033  -0.048   0.001  -0.133   2.531  -0.012   0.013  -0.003  -0.001  -1.048  -0.014  -0.013   0.000  -0.001   0.019  -0.008
 -1.062   0.004   0.000  -0.010  -0.012   0.346  -0.023   0.014   0.010   0.034  -0.007   0.012   0.007   0.001   0.003   0.001
  0.018  -0.994   0.002  -0.072   0.013  -0.023   0.167  -0.004   0.047  -0.011   0.021   0.001   0.038   0.005  -0.023  -0.025
 -0.005   0.000  -0.904   0.000  -0.003   0.014  -0.004   0.090   0.002   0.008  -0.120   0.017  -0.007   0.034   0.004   0.002
 -0.013  -0.072  -0.001  -1.068  -0.001   0.010   0.047   0.002   0.216   0.010  -0.013  -0.001  -0.023  -0.003   0.014   0.001
 -0.012   0.011   0.000   0.010  -1.048   0.034  -0.011   0.008   0.010   0.306  -0.005   0.007  -0.003   0.000  -0.010   0.004
 -0.026  -0.034   0.199   0.021  -0.014  -0.007   0.021  -0.120  -0.013  -0.005  -0.304   0.110   0.007   0.090  -0.003  -0.002
 -0.023   0.008  -0.007  -0.005  -0.013   0.012   0.001   0.017  -0.001   0.007   0.110  -0.006  -0.001  -0.014   0.001   0.001
 -0.019   0.059  -0.001   0.033   0.000   0.007   0.038  -0.007  -0.023  -0.003   0.007  -0.001  -0.009   0.000   0.011   0.003
 -0.002  -0.003   0.049   0.002  -0.001   0.001   0.005   0.034  -0.003   0.000   0.090  -0.014   0.000  -0.015   0.000   0.000
  0.000   0.032   0.000   0.092   0.019   0.003  -0.023   0.004   0.014  -0.010  -0.003   0.001   0.011   0.000   0.003   0.000
 -0.002   0.042  -0.004  -0.001  -0.008   0.001  -0.025   0.002   0.001   0.004  -0.002   0.001   0.003   0.000   0.000   0.000
 -0.002   0.005   0.047  -0.003  -0.001   0.001  -0.003  -0.027   0.002   0.001  -0.004   0.003   0.000   0.004   0.000   0.000
  0.008  -0.001   0.002   0.041  -0.007  -0.004   0.001  -0.001  -0.024   0.003   0.001   0.000   0.000   0.000   0.003   0.000


------------------------ aborting loop because EDIFF is reached ----------------------------------------


 


 total charge     
 
# of ion     s       p       d       tot
----------------------------------------
  1        0.542   0.197   6.187   6.927
  2        0.542   0.197   6.188   6.927
  3        0.504   0.251   6.227   6.983
  4        0.447   0.273   6.339   7.059
  5        0.502   0.251   6.232   6.985
------------------------------------------------
tot        2.538   1.170  31.173  34.881
 


 magnetization (x)
 
# of ion     s       p       d       tot
----------------------------------------
  1        0.000  -0.000   0.004   0.004
  2        0.000   0.000   0.004   0.004
  3        0.000  -0.000   0.004   0.004
  4       -0.000   0.000   0.004   0.004
  5        0.000   0.000   0.004   0.004
------------------------------------------------
tot        0.000   0.000   0.018   0.019
 


 magnetization (y)
 
# of ion     s       p       d       tot
----------------------------------------
  1       -0.000  -0.000  -0.018  -0.018
  2       -0.000  -0.000  -0.018  -0.018
  3       -0.000   0.000  -0.017  -0.018
  4        0.000  -0.000  -0.017  -0.016
  5       -0.000  -0.000  -0.017  -0.018
------------------------------------------------
tot       -0.000  -0.000  -0.087  -0.088
 


 magnetization (z)
 
# of ion     s       p       d       tot
----------------------------------------
  1        0.016   0.002   3.003   3.021
  2        0.016   0.002   3.002   3.020
  3        0.052  -0.000   2.909   2.961
  4       -0.051   0.004   2.802   2.755
  5        0.048  -0.001   2.904   2.951
------------------------------------------------
tot        0.081   0.008  14.620  14.708
 
    CHARGE:  cpu time    1.45: real time    1.47
    FORLOC:  cpu time    0.09: real time    0.09
    FORNL :  cpu time    0.54: real time    0.54
    STRESS:  cpu time    1.45: real time    1.46
    FORCOR:  cpu time    6.51: real time    6.51
    FORHAR:  cpu time    0.61: real time    0.61
    MIXING:  cpu time    0.09: real time    0.09
    FORVDW:  cpu time    0.00: real time    0.00

  FORCE on cell =-STRESS in cart. coord.  units (eV):
  Direction    XX          YY          ZZ          XY          YZ          ZX
  --------------------------------------------------------------------------------------
  Alpha Z    12.98155    12.98155    12.98155
  Ewald     116.01839   -34.00997   825.85460   114.55482     0.00465     0.01418
  Hartree  1089.59229   960.13040  1634.39484    95.95900     0.00904     0.01144
  E(xc)    -197.16552  -197.05636  -198.07919    -0.08579     0.00009     0.00001
  Local   -1431.04911 -1147.22904 -2691.42765  -214.60071    -0.01433    -0.02570
  n-local  -137.18924  -137.74906  -141.81774     0.63834     0.00006     0.00003
  augment   190.65409   189.00934   196.91416     1.47548    -0.00008     0.00003
  Kinetic   356.03293   353.76289   361.23638     2.04691    -0.00010    -0.00005
  Fock        0.00000     0.00000     0.00000     0.00000     0.00000     0.00000
  -------------------------------------------------------------------------------------
  Total      -0.12462    -0.16024     0.05694    -0.01195    -0.00067    -0.00007
  in kB      -0.15001    -0.19288     0.06854    -0.01438    -0.00080    -0.00009
  external pressure =       -0.09 kB  Pullay stress =        0.00 kB


 VOLUME and BASIS-vectors are now :
 -----------------------------------------------------------------------------
  energy-cutoff  :      350.00
  volume of cell :     1331.00
      direct lattice vectors                 reciprocal lattice vectors
    11.000000000  0.000000000  0.000000000     0.090909091  0.000000000  0.000000000
     0.000000000 11.000000000  0.000000000     0.000000000  0.090909091  0.000000000
     0.000000000  0.000000000 11.000000000     0.000000000  0.000000000  0.090909091

  length of vectors
    11.000000000 11.000000000 11.000000000     0.090909091  0.090909091  0.090909091


 FORCES acting on ions
    electron-ion (+dipol)            ewald-force                    non-local-force                 convergence-correction
 -----------------------------------------------------------------------------------------------
   0.249E+02 -.432E+02 -.451E+03   -.242E+02 0.419E+02 0.443E+03   -.732E+00 0.126E+01 0.748E+01   -.562E-03 -.334E-03 -.362E-03
   0.249E+02 -.432E+02 0.451E+03   -.242E+02 0.419E+02 -.443E+03   -.732E+00 0.126E+01 -.748E+01   -.547E-03 -.329E-03 0.192E-03
   -.268E+03 -.379E+03 -.138E-01   0.265E+03 0.373E+03 0.153E-01   0.256E+01 0.568E+01 -.329E-03   -.839E-03 0.602E-03 0.259E-03
   -.243E+03 0.420E+03 -.366E-01   0.238E+03 -.411E+03 0.369E-01   0.503E+01 -.852E+01 0.647E-03   0.115E-02 0.360E-04 0.195E-03
   0.461E+03 0.445E+02 -.346E-01   -.455E+03 -.452E+02 0.361E-01   -.636E+01 0.689E+00 -.843E-04   0.242E-03 -.117E-02 0.275E-03
 -----------------------------------------------------------------------------------------------
   0.238E+00 -.373E+00 -.270E-02   0.000E+00 0.284E-13 -.143E-13   -.233E+00 0.370E+00 0.215E-02   -.554E-03 -.120E-02 0.560E-03
 
 
 POSITION                                       TOTAL-FORCE (eV/Angst)
 -----------------------------------------------------------------------------------
      5.42210      5.63724      7.33963        -0.000351     -0.000913     -0.002431
      5.42206      5.63712      3.66062        -0.000321     -0.000545     -0.001856
      6.40091      6.61298      5.49989        -0.000051      0.003997      0.001435
      6.16660      4.34378      5.49996         0.000144     -0.002099      0.001123
      4.08832      5.26888      5.49990         0.000579     -0.000440      0.001729
 -----------------------------------------------------------------------------------
    total drift:                                0.004168     -0.004326      0.000004


--------------------------------------------------------------------------------------------------------



  FREE ENERGIE OF THE ION-ELECTRON SYSTEM (eV)
  ---------------------------------------------------
  free  energy   TOTEN  =       -28.90512628 eV

  energy  without entropy=      -28.90616634  energy(sigma->0) =      -28.90538629
 
 d Force = 0.3366722E-06[ 0.334E-06, 0.340E-06]  d Energy = 0.1260779E-04-0.123E-04
 d Force = 0.6065552E-02[ 0.607E-02, 0.606E-02]  d Ewald  = 0.6065552E-02-0.373E-10


--------------------------------------------------------------------------------------------------------


    POTLOK:  cpu time    7.84: real time    7.84


--------------------------------------------------------------------------------------------------------


 Conjugate gradient step on ions:
 trial-energy change:   -0.000013  1 .order    0.000000    0.000000    0.000000
  (g-gl).g = 0.171E-05      g.g   = 0.205E-05  gl.gl    = 0.636E-06
 g(Force)  = 0.205E-05   g(Stress)= 0.000E+00 ortho     =-0.601E-07
 gamma     =   2.68321
 trial     =   0.17956
 opt step  =   0.71824  (harmonic =  10.40584) maximal distance =0.00045088
 next E    =   -28.905124   (d E  =  -0.00001)


--------------------------------------------------------------------------------------------------------


 writing wavefunctions
     LOOP+:  cpu time  217.97: real time  219.66
    4ORBIT:  cpu time    0.00: real time    0.00
 


 orbital moment (x)
 
 # of ion     p       d       tot
 ----------------------------------------
  1         0.000   0.000   0.000
  2         0.000   0.000   0.000
  3         0.000   0.000   0.000
  4         0.000   0.000   0.000
  5         0.000   0.000   0.000
 ----------------------------------------
            0.000   0.000   0.000
 


 orbital moment (y)
 
 # of ion     p       d       tot
 ----------------------------------------
  1         0.000   0.000   0.000
  2         0.000   0.000   0.000
  3         0.000   0.000   0.000
  4         0.000   0.000   0.000
  5         0.000   0.000   0.000
 ----------------------------------------
            0.000   0.000   0.000
 


 orbital moment (z)
 
 # of ion     p       d       tot
 ----------------------------------------
  1         0.000   0.000   0.000
  2         0.000   0.000   0.000
  3         0.000   0.000   0.000
  4         0.000   0.000   0.000
  5         0.000   0.000   0.000
 ----------------------------------------
            0.000   0.000   0.000
 


 total charge     
 
# of ion     s       p       d       tot
----------------------------------------
  1        0.542   0.197   6.187   6.927
  2        0.542   0.197   6.188   6.927
  3        0.504   0.251   6.227   6.983
  4        0.447   0.273   6.339   7.059
  5        0.502   0.251   6.232   6.985
------------------------------------------------
tot        2.538   1.170  31.173  34.881
 


 magnetization (x)
 
# of ion     s       p       d       tot
----------------------------------------
  1        0.000  -0.000   0.004   0.004
  2        0.000   0.000   0.004   0.004
  3        0.000  -0.000   0.004   0.004
  4       -0.000   0.000   0.004   0.004
  5        0.000   0.000   0.004   0.004
------------------------------------------------
tot        0.000   0.000   0.018   0.019
 


 magnetization (y)
 
# of ion     s       p       d       tot
----------------------------------------
  1       -0.000  -0.000  -0.018  -0.018
  2       -0.000  -0.000  -0.018  -0.018
  3       -0.000   0.000  -0.017  -0.018
  4        0.000  -0.000  -0.017  -0.016
  5       -0.000  -0.000  -0.017  -0.018
------------------------------------------------
tot       -0.000  -0.000  -0.087  -0.088
 


 magnetization (z)
 
# of ion     s       p       d       tot
----------------------------------------
  1        0.016   0.002   3.003   3.021
  2        0.016   0.002   3.002   3.020
  3        0.052  -0.000   2.909   2.961
  4       -0.051   0.004   2.802   2.755
  5        0.048  -0.001   2.904   2.951
------------------------------------------------
tot        0.081   0.008  14.620  14.708
 

 total amount of memory used by VASP on root node   319243. kBytes
========================================================================

   base      :      30000. kBytes
   nonl-proj :        555. kBytes
   fftplans  :      64964. kBytes
   grid      :     221184. kBytes
   one-center:         62. kBytes
   wavefun   :       2478. kBytes
 
  
  
 General timing and accounting informations for this job:
 ========================================================
  
                  Total CPU time used (sec):     8212.462
                            User time (sec):     7765.808
                          System time (sec):      446.653
                         Elapsed time (sec):     8421.221
  
                   Maximum memory used (kb):      550596.
                   Average memory used (kb):           0.
  
                          Minor page faults:      2981138
                          Major page faults:           47
                 Voluntary context switches:       191816
