LIO                                     
           1
    11.000000    0.000000    0.000000
     0.000000   11.000000    0.000000
     0.000000    0.000000   11.000000
   Fe
   5
Direct configuration=     1
   0.49343719  0.51043643  0.66743226
   0.49344688  0.51042860  0.33256261
   0.58429886  0.60237478  0.49999351
   0.55978626  0.39781822  0.50000037
   0.36902956  0.47894200  0.50001128
Direct configuration=     2
   0.49321217  0.51101436  0.66704145
   0.49321860  0.51100498  0.33295691
   0.58352179  0.60201430  0.49999437
   0.56025200  0.39670512  0.49999995
   0.36979418  0.47926127  0.50000736
Direct configuration=     3
   0.49296330  0.51165353  0.66660922
   0.49296613  0.51164245  0.33339299
   0.58266235  0.60161561  0.49999532
   0.56076711  0.39547406  0.49999948
   0.37063985  0.47961438  0.50000303
Direct configuration=     4
   0.49288421  0.51185665  0.66647186
   0.49288590  0.51184503  0.33353158
   0.58238924  0.60148891  0.49999562
   0.56093080  0.39508284  0.49999933
   0.37090859  0.47972659  0.50000165
Direct configuration=     5
   0.49286151  0.51207000  0.66684523
   0.49286192  0.51205850  0.33315445
   0.58222551  0.60125637  0.49999756
   0.56084444  0.39500566  0.50000074
   0.37120537  0.47960950  0.50000205
Direct configuration=     6
   0.49283427  0.51232591  0.66729308
   0.49283315  0.51231456  0.33270209
   0.58202912  0.60097744  0.49999989
   0.56074086  0.39491308  0.50000243
   0.37156135  0.47946904  0.50000254
Direct configuration=     7
   0.49285653  0.51235404  0.66725476
   0.49285597  0.51234283  0.33274570
   0.58200286  0.60096890  0.49999731
   0.56062321  0.39494353  0.50000140
   0.37166017  0.47939074  0.50000086
Direct configuration=     8
   0.49285325  0.51234989  0.66726041
   0.49285260  0.51233866  0.33273927
   0.58200674  0.60097016  0.49999769
   0.56064057  0.39493904  0.50000155
   0.37164560  0.47940229  0.50000111
Direct configuration=     9
   0.49288456  0.51239014  0.66725051
   0.49288424  0.51237932  0.33275186
   0.58201171  0.60104255  0.49999602
   0.56055732  0.39487726  0.50000122
   0.37166091  0.47931076  0.50000042
Direct configuration=    10
   0.49293085  0.51244964  0.66723588
   0.49293100  0.51243941  0.33277048
   0.58201906  0.60114954  0.49999356
   0.56043429  0.39478596  0.50000072
   0.37168355  0.47917547  0.49999939
Direct configuration=    11
   0.49296096  0.51247401  0.66721920
   0.49296003  0.51246430  0.33277588
   0.58199290  0.60113726  0.49999807
   0.56042885  0.39478381  0.50000392
   0.37165600  0.47914066  0.50000296
Direct configuration=    12
   0.49295973  0.51247301  0.66721989
   0.49295884  0.51246328  0.33277566
   0.58199398  0.60113776  0.49999788
   0.56042907  0.39478390  0.50000379
   0.37165713  0.47914209  0.50000281
Direct configuration=    13
   0.49295793  0.51247407  0.66722511
   0.49295699  0.51246399  0.33277639
   0.58198973  0.60114046  0.49999587
   0.56043956  0.39478750  0.50000221
   0.37165454  0.47913401  0.50000045
Direct configuration=    14
   0.49295527  0.51247564  0.66723284
   0.49295424  0.51246504  0.33277748
   0.58198344  0.60114447  0.49999288
   0.56045509  0.39479283  0.49999987
   0.37165071  0.47912205  0.49999696
Direct configuration=    15
   0.49295453  0.51247567  0.66723301
   0.49295344  0.51246506  0.33277763
   0.58198177  0.60114512  0.49999280
   0.56045801  0.39479481  0.49999978
   0.37165099  0.47911936  0.49999681
Direct configuration=    16
   0.49295231  0.51247576  0.66723350
   0.49295103  0.51246514  0.33277809
   0.58197677  0.60114709  0.49999254
   0.56046678  0.39480075  0.49999952
   0.37165185  0.47911129  0.49999637
Direct configuration=    17
   0.49294789  0.51247594  0.66723449
   0.49294622  0.51246528  0.33277901
   0.58196676  0.60115102  0.49999204
   0.56048432  0.39481263  0.49999901
   0.37165356  0.47909516  0.49999549
Direct configuration=    18
   0.49293903  0.51247631  0.66723646
   0.49293659  0.51246557  0.33278084
   0.58194675  0.60115887  0.49999102
   0.56051939  0.39483639  0.49999798
   0.37165699  0.47906289  0.49999373
Direct configuration=    19
   0.49292132  0.51247703  0.66724041
   0.49291733  0.51246615  0.33278451
   0.58190673  0.60117459  0.49998899
   0.56058954  0.39488392  0.49999591
   0.37166383  0.47899835  0.49999021
Direct configuration=    20
   0.49291841  0.51247639  0.66723889
   0.49291422  0.51246582  0.33278338
   0.58190104  0.60118004  0.49998995
   0.56059979  0.39488906  0.49999661
   0.37166529  0.47898872  0.49999121
