   12   12    1    1
  0.1362399E+02  0.5468000E-09  0.5468000E-09  0.5468000E-09  0.5000000E-15
  1.000000000000000E-004
  CAR 
 LIO                                     
  104  216  128
 
  0.8333333E-01  0.8333333E-01  0.8333333E-01  0.4629630E-02
   1      -34.453946
   2      -34.443438
   3      -34.396568
   4      -34.391790
   5      -34.072821
   6      -34.065957
   7      -34.029053
   8      -34.015709
   9      -16.079417
  10      -16.077788
  11      -15.993678
  12      -15.990319
  13      -15.859334
  14      -15.855636
  15      -15.346422
  16      -15.338716
  17      -11.331313
  18      -11.330655
  19      -11.313700
  20      -11.307439
  21      -11.279525
  22      -11.278397
  23      -10.346034
  24      -10.345653
  25       -9.596270
  26       -9.592488
  27       -9.591306
  28       -9.583423
  29       -9.582326
  30       -9.578614
  31       -8.929680
  32       -8.927991
  33       -7.894483
  34       -7.890600
  35       -7.830619
  36       -7.822963
  37       -7.756700
  38       -7.752755
  39       -7.196914
  40       -7.177149
  41       -7.053659
  42       -7.033257
  43       -4.890315
  44       -4.886755
  45       -4.884280
  46       -4.879223
  47       -4.872630
  48       -4.869142
  49        2.072386
  50        2.072951
  51        2.076856
  52        2.078170
  53        2.081997
  54        2.082821
  55        2.693916
  56        2.695348
  57        2.709056
  58        2.710108
  59        2.821579
  60        2.823016
  61        4.412477
  62        4.413494
  63        4.415470
  64        4.416742
  65        4.420047
  66        4.421318
  67        5.139049
  68        5.142094
  69        5.145132
  70        5.149376
  71        5.153253
  72        5.157679
  73        5.239414
  74        5.240723
  75        5.266631
  76        5.266954
  77        5.291051
  78        5.293441
  79        5.317607
  80        5.318755
  81        5.379949
  82        5.382349
  83        5.428471
  84        5.433287
  85        5.569988
  86        5.570261
  87        5.572900
  88        5.573108
  89        5.577065
  90        5.577226
  91        5.757230
  92        5.757304
  93        5.763225
  94        5.764618
  95        5.769355
  96        5.770416
  97        9.099542
  98        9.107473
  99        9.134777
 100        9.147774
 101        9.207760
 102        9.216553
 103        9.544547
 104        9.549156
 105        9.560936
 106        9.569933
 107        9.586862
 108        9.588275
 109        9.725997
 110        9.747729
 111        9.806508
 112        9.821988
 113        9.864935
 114        9.872949
 115        9.879037
 116        9.897709
 117        9.996005
 118       10.014317
 119       10.021987
 120       10.037360
 121       10.190375
 122       10.203210
 123       10.212918
 124       10.235763
 125       10.256865
 126       10.264631
 127       10.668373
 128       10.679100
 
  0.2500000E+00  0.8333333E-01  0.8333333E-01  0.4629630E-02
   1      -34.447411
   2      -34.437818
   3      -34.400854
   4      -34.395958
   5      -34.071904
   6      -34.062579
   7      -34.034017
   8      -34.019010
   9      -16.053973
  10      -16.052494
  11      -15.966065
  12      -15.962891
  13      -15.819281
  14      -15.815689
  15      -15.427568
  16      -15.420325
  17      -11.329581
  18      -11.328236
  19      -11.314960
  20      -11.311922
  21      -11.204650
  22      -11.200753
  23      -10.518779
  24      -10.517231
  25       -9.850570
  26       -9.849941
  27       -9.814276
  28       -9.811192
  29       -9.510172
  30       -9.508751
  31       -9.031808
  32       -9.030384
  33       -7.757855
  34       -7.744395
  35       -7.395643
  36       -7.392418
  37       -7.341391
  38       -7.330487
  39       -7.258479
  40       -7.242405
  41       -6.740131
  42       -6.726590
  43       -5.173956
  44       -5.164848
  45       -5.120650
  46       -5.118679
  47       -5.109705
  48       -5.105865
  49        2.340197
  50        2.341073
  51        2.346168
  52        2.347639
  53        2.449677
  54        2.452001
  55        2.843134
  56        2.844361
  57        2.919666
  58        2.920686
  59        3.146886
  60        3.148732
  61        4.048173
  62        4.050413
  63        4.242735
  64        4.243752
  65        4.252003
  66        4.253775
  67        4.552221
  68        4.555007
  69        4.787639
  70        4.790513
  71        4.925280
  72        4.927705
  73        5.039600
  74        5.040303
  75        5.049713
  76        5.050918
  77        5.228288
  78        5.228594
  79        5.255153
  80        5.257444
  81        5.430155
  82        5.433247
  83        5.436344
  84        5.439620
  85        5.444135
  86        5.446085
  87        5.560938
  88        5.564811
  89        5.710060
  90        5.710701
  91        5.833672
  92        5.834036
  93        5.843089
  94        5.843763
  95        5.994953
  96        5.996503
  97        9.141638
  98        9.146707
  99        9.197825
 100        9.221673
 101        9.271283
 102        9.288848
 103        9.571670
 104        9.577657
 105        9.603402
 106        9.613621
 107        9.626387
 108        9.637665
 109        9.704348
 110        9.740510
 111        9.774323
 112        9.794310
 113        9.823699
 114        9.828310
 115        9.907051
 116        9.920407
 117        9.924643
 118        9.948533
 119       10.019608
 120       10.038373
 121       10.159983
 122       10.170616
 123       10.211087
 124       10.223129
 125       10.277201
 126       10.294355
 127       10.537496
 128       10.547210
 
  0.4166667E+00  0.8333333E-01  0.8333333E-01  0.4629630E-02
   1      -34.438803
   2      -34.431069
   3      -34.406470
   4      -34.401974
   5      -34.070883
   6      -34.057228
   7      -34.040987
   8      -34.022405
   9      -16.033283
  10      -16.031608
  11      -15.937000
  12      -15.932467
  13      -15.733255
  14      -15.728936
  15      -15.552835
  16      -15.545542
  17      -11.338646
  18      -11.336141
  19      -11.331014
  20      -11.327832
  21      -11.019596
  22      -11.016528
  23      -10.772210
  24      -10.769189
  25      -10.046847
  26      -10.045155
  27       -9.988621
  28       -9.983657
  29       -9.369714
  30       -9.368362
  31       -9.195584
  32       -9.194446
  33       -7.610249
  34       -7.596735
  35       -7.438312
  36       -7.420941
  37       -6.883441
  38       -6.879666
  39       -6.814010
  40       -6.809421
  41       -6.232204
  42       -6.221652
  43       -5.658283
  44       -5.649398
  45       -5.457033
  46       -5.454723
  47       -5.441681
  48       -5.435762
  49        2.712179
  50        2.712953
  51        2.717753
  52        2.719139
  53        3.090300
  54        3.092380
  55        3.132182
  56        3.133556
  57        3.342825
  58        3.344195
  59        3.609218
  60        3.610741
  61        3.676283
  62        3.678045
  63        3.921427
  64        3.923827
  65        3.935800
  66        3.936891
  67        3.950785
  68        3.952819
  69        4.001866
  70        4.004409
  71        4.329629
  72        4.331835
  73        4.974631
  74        4.975150
  75        4.989059
  76        4.990191
  77        5.162911
  78        5.163324
  79        5.182434
  80        5.184572
  81        5.327204
  82        5.328486
  83        5.334778
  84        5.336437
  85        5.599726
  86        5.601966
  87        5.721435
  88        5.722909
  89        5.794951
  90        5.798338
  91        5.892295
  92        5.893568
  93        5.902430
  94        5.903871
  95        5.988896
  96        5.991094
  97        9.135001
  98        9.138925
  99        9.241948
 100        9.255753
 101        9.393245
 102        9.409699
 103        9.548940
 104        9.570460
 105        9.599274
 106        9.620698
 107        9.660513
 108        9.683001
 109        9.730731
 110        9.748009
 111        9.763673
 112        9.776221
 113        9.839054
 114        9.851133
 115        9.873316
 116        9.916341
 117        9.947591
 118        9.974074
 119       10.021948
 120       10.048305
 121       10.120021
 122       10.141945
 123       10.172044
 124       10.182352
 125       10.393376
 126       10.414669
 127       10.446078
 128       10.482499
 
 -0.4166667E+00  0.8333333E-01  0.8333333E-01  0.4629630E-02
   1      -34.438805
   2      -34.431066
   3      -34.406474
   4      -34.401971
   5      -34.070884
   6      -34.057225
   7      -34.040990
   8      -34.022404
   9      -16.033547
  10      -16.031332
  11      -15.937382
  12      -15.932047
  13      -15.732586
  14      -15.729695
  15      -15.553054
  16      -15.545282
  17      -11.339344
  18      -11.335592
  19      -11.330932
  20      -11.327776
  21      -11.020070
  22      -11.016082
  23      -10.771656
  24      -10.769734
  25      -10.047284
  26      -10.044754
  27       -9.988586
  28       -9.983621
  29       -9.369600
  30       -9.368492
  31       -9.195680
  32       -9.194332
  33       -7.611673
  34       -7.595456
  35       -7.435990
  36       -7.423027
  37       -6.884471
  38       -6.878882
  39       -6.814521
  40       -6.808684
  41       -6.230941
  42       -6.223086
  43       -5.658961
  44       -5.648508
  45       -5.459265
  46       -5.453212
  47       -5.440997
  48       -5.435847
  49        2.712174
  50        2.712968
  51        2.717786
  52        2.719091
  53        3.090327
  54        3.092352
  55        3.132060
  56        3.133715
  57        3.342604
  58        3.344448
  59        3.609446
  60        3.610483
  61        3.676301
  62        3.678013
  63        3.921775
  64        3.923464
  65        3.935792
  66        3.936875
  67        3.950977
  68        3.952626
  69        4.001877
  70        4.004401
  71        4.329706
  72        4.331739
  73        4.974566
  74        4.975309
  75        4.988929
  76        4.990225
  77        5.162880
  78        5.163352
  79        5.182451
  80        5.184585
  81        5.327242
  82        5.328400
  83        5.334995
  84        5.336297
  85        5.599894
  86        5.601791
  87        5.721366
  88        5.722989
  89        5.795262
  90        5.798027
  91        5.892285
  92        5.893590
  93        5.902467
  94        5.903792
  95        5.988596
  96        5.991408
  97        9.134147
  98        9.139857
  99        9.245657
 100        9.251970
 101        9.395028
 102        9.408313
 103        9.546651
 104        9.571176
 105        9.601304
 106        9.619823
 107        9.659842
 108        9.684062
 109        9.731386
 110        9.744460
 111        9.765218
 112        9.775904
 113        9.840847
 114        9.850610
 115        9.872819
 116        9.916017
 117        9.950883
 118        9.971143
 119       10.020445
 120       10.051544
 121       10.123208
 122       10.139765
 123       10.170227
 124       10.181436
 125       10.391941
 126       10.416129
 127       10.448197
 128       10.493633
 
 -0.2500000E+00  0.8333333E-01  0.8333333E-01  0.4629630E-02
   1      -34.447412
   2      -34.437815
   3      -34.400857
   4      -34.395955
   5      -34.071907
   6      -34.062576
   7      -34.034021
   8      -34.019008
   9      -16.054470
  10      -16.051967
  11      -15.966672
  12      -15.962225
  13      -15.818706
  14      -15.816367
  15      -15.427874
  16      -15.420002
  17      -11.330442
  18      -11.327501
  19      -11.314483
  20      -11.312303
  21      -11.204916
  22      -11.200511
  23      -10.518348
  24      -10.517673
  25       -9.851469
  26       -9.849087
  27       -9.814349
  28       -9.810995
  29       -9.510109
  30       -9.508822
  31       -9.031832
  32       -9.030346
  33       -7.758627
  34       -7.743732
  35       -7.395958
  36       -7.392176
  37       -7.341198
  38       -7.329801
  39       -7.255899
  40       -7.245611
  41       -6.737830
  42       -6.729022
  43       -5.174103
  44       -5.164492
  45       -5.123126
  46       -5.116213
  47       -5.110102
  48       -5.105636
  49        2.340220
  50        2.341050
  51        2.346262
  52        2.347534
  53        2.449729
  54        2.451950
  55        2.843016
  56        2.844537
  57        2.919418
  58        2.920974
  59        3.146896
  60        3.148661
  61        4.048352
  62        4.050212
  63        4.242828
  64        4.243661
  65        4.252359
  66        4.253367
  67        4.552505
  68        4.554712
  69        4.787523
  70        4.790637
  71        4.925349
  72        4.927606
  73        5.039447
  74        5.040691
  75        5.049684
  76        5.050717
  77        5.228358
  78        5.228543
  79        5.255084
  80        5.257503
  81        5.430134
  82        5.433250
  83        5.436912
  84        5.439094
  85        5.443572
  86        5.446734
  87        5.561278
  88        5.564469
  89        5.710021
  90        5.710752
  91        5.833419
  92        5.834296
  93        5.842940
  94        5.843837
  95        5.994670
  96        5.996804
  97        9.139990
  98        9.148979
  99        9.199979
 100        9.220458
 101        9.268872
 102        9.289490
 103        9.571657
 104        9.578911
 105        9.601266
 106        9.614888
 107        9.628493
 108        9.633610
 109        9.708511
 110        9.739577
 111        9.775376
 112        9.787957
 113        9.824300
 114        9.830094
 115        9.907974
 116        9.917774
 117        9.927661
 118        9.949730
 119       10.018108
 120       10.039532
 121       10.163888
 122       10.168426
 123       10.212632
 124       10.217916
 125       10.277599
 126       10.295597
 127       10.535082
 128       10.542125
 
 -0.8333333E-01  0.8333333E-01  0.8333333E-01  0.4629630E-02
   1      -34.453947
   2      -34.443437
   3      -34.396570
   4      -34.391789
   5      -34.072822
   6      -34.065956
   7      -34.029054
   8      -34.015708
   9      -16.079620
  10      -16.077570
  11      -15.993787
  12      -15.990194
  13      -15.859116
  14      -15.855888
  15      -15.346546
  16      -15.338587
  17      -11.332284
  18      -11.329635
  19      -11.313087
  20      -11.308170
  21      -11.280546
  22      -11.277333
  23      -10.346098
  24      -10.345597
  25       -9.596273
  26       -9.592802
  27       -9.590961
  28       -9.583705
  29       -9.582137
  30       -9.578504
  31       -8.929675
  32       -8.927990
  33       -7.894996
  34       -7.890256
  35       -7.830103
  36       -7.823340
  37       -7.757912
  38       -7.751517
  39       -7.193929
  40       -7.180149
  41       -7.053114
  42       -7.033810
  43       -4.890706
  44       -4.886252
  45       -4.884737
  46       -4.878884
  47       -4.871943
  48       -4.869814
  49        2.072360
  50        2.072976
  51        2.076897
  52        2.078134
  53        2.081987
  54        2.082822
  55        2.694587
  56        2.694670
  57        2.709559
  58        2.709697
  59        2.821639
  60        2.822884
  61        4.412376
  62        4.413611
  63        4.415603
  64        4.416625
  65        4.420016
  66        4.421280
  67        5.139387
  68        5.141758
  69        5.144529
  70        5.149901
  71        5.153784
  72        5.157225
  73        5.239212
  74        5.240926
  75        5.266575
  76        5.266991
  77        5.291147
  78        5.293341
  79        5.317289
  80        5.319085
  81        5.379982
  82        5.382236
  83        5.429858
  84        5.431973
  85        5.570004
  86        5.570264
  87        5.572902
  88        5.573208
  89        5.576834
  90        5.577437
  91        5.757084
  92        5.757377
  93        5.763039
  94        5.764687
  95        5.769231
  96        5.770674
  97        9.100370
  98        9.107152
  99        9.134333
 100        9.148597
 101        9.206960
 102        9.216274
 103        9.546335
 104        9.548348
 105        9.561821
 106        9.568894
 107        9.586623
 108        9.587509
 109        9.729129
 110        9.744886
 111        9.808005
 112        9.819299
 113        9.863161
 114        9.875049
 115        9.881915
 116        9.895490
 117        9.997941
 118       10.011080
 119       10.026273
 120       10.034425
 121       10.193651
 122       10.201005
 123       10.214762
 124       10.232922
 125       10.254567
 126       10.267268
 127       10.666602
 128       10.672727
 
  0.8333333E-01  0.2500000E+00  0.8333333E-01  0.4629630E-02
   1      -34.447434
   2      -34.438299
   3      -34.400393
   4      -34.395789
   5      -34.070843
   6      -34.065094
   7      -34.031896
   8      -34.019803
   9      -16.054664
  10      -16.053271
  11      -15.963970
  12      -15.961815
  13      -15.821141
  14      -15.815816
  15      -15.427503
  16      -15.420119
  17      -11.330397
  18      -11.328631
  19      -11.314052
  20      -11.310693
  21      -11.204099
  22      -11.201931
  23      -10.518667
  24      -10.517383
  25       -9.851838
  26       -9.851406
  27       -9.812489
  28       -9.811061
  29       -9.510420
  30       -9.508366
  31       -9.031862
  32       -9.030311
  33       -7.754162
  34       -7.746379
  35       -7.399125
  36       -7.392897
  37       -7.338339
  38       -7.329532
  39       -7.257715
  40       -7.243639
  41       -6.742248
  42       -6.725521
  43       -5.174643
  44       -5.164715
  45       -5.120225
  46       -5.117600
  47       -5.110446
  48       -5.105876
  49        2.340087
  50        2.340644
  51        2.346800
  52        2.347337
  53        2.449710
  54        2.452077
  55        2.843303
  56        2.844069
  57        2.919918
  58        2.920437
  59        3.147042
  60        3.148754
  61        4.048533
  62        4.050097
  63        4.242317
  64        4.243256
  65        4.252578
  66        4.253802
  67        4.552658
  68        4.554698
  69        4.787557
  70        4.790402
  71        4.925452
  72        4.927847
  73        5.038799
  74        5.040467
  75        5.049918
  76        5.051247
  77        5.227204
  78        5.227872
  79        5.256728
  80        5.257435
  81        5.430294
  82        5.432950
  83        5.436094
  84        5.439527
  85        5.444523
  86        5.446420
  87        5.561507
  88        5.564349
  89        5.710175
  90        5.710678
  91        5.833350
  92        5.833828
  93        5.843545
  94        5.843979
  95        5.995398
  96        5.996176
  97        9.139667
  98        9.144904
  99        9.199567
 100        9.223548
 101        9.271720
 102        9.286560
 103        9.568850
 104        9.576751
 105        9.606201
 106        9.615010
 107        9.625780
 108        9.636611
 109        9.705650
 110        9.740165
 111        9.776181
 112        9.796197
 113        9.824200
 114        9.831716
 115        9.901745
 116        9.918538
 117        9.927760
 118        9.949561
 119       10.016459
 120       10.038804
 121       10.161345
 122       10.169419
 123       10.212525
 124       10.224540
 125       10.279807
 126       10.290298
 127       10.530418
 128       10.541340
 
  0.2500000E+00  0.2500000E+00  0.8333333E-01  0.4629630E-02
   1      -34.441881
   2      -34.433368
   3      -34.404232
   4      -34.399511
   5      -34.069522
   6      -34.061462
   7      -34.036701
   8      -34.022944
   9      -16.029789
  10      -16.027863
  11      -15.945566
  12      -15.942255
  13      -15.798081
  14      -15.792626
  15      -15.495506
  16      -15.488804
  17      -11.319241
  18      -11.316351
  19      -11.237558
  20      -11.232329
  21      -11.207998
  22      -11.205100
  23      -10.635671
  24      -10.633814
  25       -9.919588
  26       -9.913778
  27       -9.751148
  28       -9.749746
  29       -9.737864
  30       -9.734821
  31       -9.175774
  32       -9.175064
  33       -7.378004
  34       -7.365671
  35       -7.310389
  36       -7.297501
  37       -7.238006
  38       -7.220036
  39       -7.089213
  40       -7.083350
  41       -6.546112
  42       -6.529698
  43       -5.363645
  44       -5.353262
  45       -5.344057
  46       -5.334673
  47       -5.304360
  48       -5.296773
  49        2.606476
  50        2.608741
  51        2.684500
  52        2.685998
  53        2.690313
  54        2.692086
  55        2.964440
  56        2.965836
  57        3.031008
  58        3.032538
  59        3.473796
  60        3.475856
  61        3.979829
  62        3.980562
  63        3.983209
  64        3.984428
  65        4.158205
  66        4.160254
  67        4.481336
  68        4.483047
  69        4.489887
  70        4.491965
  71        4.758547
  72        4.761180
  73        4.795101
  74        4.795926
  75        4.942999
  76        4.944548
  77        4.963605
  78        4.965832
  79        5.133941
  80        5.135253
  81        5.192604
  82        5.195680
  83        5.286283
  84        5.288388
  85        5.538791
  86        5.540017
  87        5.544439
  88        5.545435
  89        5.643807
  90        5.647271
  91        6.001815
  92        6.002995
  93        6.020901
  94        6.021554
  95        6.042487
  96        6.043262
  97        9.161642
  98        9.171043
  99        9.216287
 100        9.264355
 101        9.290408
 102        9.320793
 103        9.565200
 104        9.588656
 105        9.617898
 106        9.620586
 107        9.650056
 108        9.666322
 109        9.683841
 110        9.733183
 111        9.774969
 112        9.787851
 113        9.828909
 114        9.846481
 115        9.872612
 116        9.896839
 117        9.905544
 118        9.935207
 119        9.998331
 120       10.028819
 121       10.153294
 122       10.161061
 123       10.217609
 124       10.241580
 125       10.258615
 126       10.267130
 127       10.502814
 128       10.506496
 
  0.4166667E+00  0.2500000E+00  0.8333333E-01  0.4629630E-02
   1      -34.434482
   2      -34.427080
   3      -34.409530
   4      -34.404960
   5      -34.068013
   6      -34.055108
   7      -34.044245
   8      -34.026266
   9      -16.007443
  10      -16.005100
  11      -15.924463
  12      -15.919664
  13      -15.741934
  14      -15.735687
  15      -15.597415
  16      -15.590574
  17      -11.297551
  18      -11.294018
  19      -11.257130
  20      -11.252618
  21      -11.046422
  22      -11.043442
  23      -10.830668
  24      -10.827856
  25       -9.993647
  26       -9.988812
  27       -9.929630
  28       -9.923586
  29       -9.587424
  30       -9.584133
  31       -9.383273
  32       -9.382365
  33       -7.294260
  34       -7.284607
  35       -7.245114
  36       -7.226185
  37       -6.886993
  38       -6.874738
  39       -6.787278
  40       -6.780889
  41       -6.184359
  42       -6.171480
  43       -5.741177
  44       -5.731932
  45       -5.596032
  46       -5.588900
  47       -5.565633
  48       -5.558114
  49        2.983410
  50        2.985574
  51        3.021543
  52        3.023705
  53        3.213109
  54        3.214328
  55        3.254157
  56        3.255914
  57        3.351731
  58        3.352961
  59        3.650464
  60        3.651861
  61        3.840921
  62        3.843236
  63        3.894273
  64        3.896813
  65        3.915838
  66        3.917131
  67        3.917968
  68        3.919504
  69        4.178004
  70        4.180542
  71        4.456070
  72        4.458130
  73        4.484343
  74        4.486990
  75        4.568813
  76        4.570204
  77        4.985908
  78        4.987509
  79        5.014198
  80        5.016315
  81        5.218754
  82        5.220986
  83        5.285473
  84        5.287250
  85        5.315291
  86        5.318180
  87        5.494215
  88        5.496716
  89        5.846713
  90        5.849578
  91        6.014489
  92        6.016503
  93        6.101362
  94        6.102151
  95        6.135670
  96        6.136717
  97        9.155259
  98        9.160571
  99        9.240498
 100        9.261486
 101        9.373134
 102        9.387666
 103        9.506298
 104        9.522931
 105        9.599967
 106        9.616318
 107        9.632098
 108        9.681605
 109        9.721455
 110        9.742535
 111        9.785492
 112        9.805698
 113        9.835382
 114        9.860508
 115        9.875375
 116        9.894717
 117        9.922843
 118        9.991307
 119       10.017414
 120       10.031349
 121       10.120232
 122       10.149403
 123       10.188815
 124       10.206527
 125       10.328621
 126       10.343250
 127       10.430494
 128       10.457225
 
 -0.4166667E+00  0.2500000E+00  0.8333333E-01  0.4629630E-02
   1      -34.434485
   2      -34.427075
   3      -34.409537
   4      -34.404956
   5      -34.068015
   6      -34.055102
   7      -34.044251
   8      -34.026264
   9      -16.007723
  10      -16.004811
  11      -15.924772
  12      -15.919273
  13      -15.741120
  14      -15.736662
  15      -15.597979
  16      -15.589937
  17      -11.298521
  18      -11.293363
  19      -11.256525
  20      -11.252936
  21      -11.046688
  22      -11.043217
  23      -10.830127
  24      -10.828382
  25       -9.994321
  26       -9.988048
  27       -9.929315
  28       -9.923922
  29       -9.587057
  30       -9.584585
  31       -9.383981
  32       -9.381572
  33       -7.296996
  34       -7.282384
  35       -7.240944
  36       -7.229643
  37       -6.887947
  38       -6.874502
  39       -6.785128
  40       -6.782342
  41       -6.183359
  42       -6.172918
  43       -5.742149
  44       -5.730419
  45       -5.597757
  46       -5.587852
  47       -5.566643
  48       -5.556729
  49        2.983441
  50        2.985523
  51        3.021579
  52        3.023681
  53        3.212893
  54        3.214622
  55        3.254112
  56        3.255970
  57        3.351455
  58        3.353280
  59        3.650778
  60        3.651484
  61        3.841001
  62        3.843157
  63        3.894822
  64        3.896230
  65        3.915893
  66        3.916964
  67        3.918286
  68        3.919216
  69        4.178063
  70        4.180499
  71        4.456424
  72        4.457708
  73        4.484444
  74        4.486844
  75        4.568752
  76        4.570358
  77        4.985962
  78        4.987405
  79        5.014577
  80        5.016016
  81        5.219456
  82        5.220385
  83        5.285299
  84        5.287369
  85        5.315282
  86        5.318189
  87        5.494351
  88        5.496578
  89        5.846769
  90        5.849498
  91        6.014330
  92        6.016684
  93        6.101295
  94        6.102265
  95        6.135766
  96        6.136566
  97        9.154007
  98        9.161863
  99        9.245696
 100        9.256533
 101        9.373073
 102        9.388143
 103        9.502436
 104        9.525909
 105        9.599683
 106        9.617925
 107        9.630607
 108        9.681227
 109        9.721541
 110        9.741216
 111        9.785607
 112        9.806949
 113        9.836439
 114        9.859626
 115        9.873880
 116        9.896189
 117        9.924945
 118        9.988304
 119       10.016978
 120       10.034529
 121       10.121317
 122       10.146913
 123       10.190362
 124       10.204768
 125       10.327595
 126       10.345216
 127       10.436929
 128       10.470193
 
 -0.2500000E+00  0.2500000E+00  0.8333333E-01  0.4629630E-02
   1      -34.441883
   2      -34.433363
   3      -34.404238
   4      -34.399508
   5      -34.069525
   6      -34.061458
   7      -34.036706
   8      -34.022941
   9      -16.030198
  10      -16.027422
  11      -15.946096
  12      -15.941613
  13      -15.797516
  14      -15.793361
  15      -15.496204
  16      -15.488075
  17      -11.320084
  18      -11.315757
  19      -11.237396
  20      -11.232209
  21      -11.208348
  22      -11.204896
  23      -10.635530
  24      -10.633955
  25       -9.920170
  26       -9.913008
  27       -9.751843
  28       -9.748844
  29       -9.739074
  30       -9.733904
  31       -9.176268
  32       -9.174522
  33       -7.379365
  34       -7.364729
  35       -7.311512
  36       -7.295954
  37       -7.234164
  38       -7.223604
  39       -7.088707
  40       -7.083845
  41       -6.545610
  42       -6.530636
  43       -5.362626
  44       -5.355497
  45       -5.341824
  46       -5.335696
  47       -5.305360
  48       -5.295669
  49        2.606528
  50        2.608669
  51        2.684381
  52        2.686230
  53        2.690090
  54        2.692202
  55        2.964468
  56        2.965933
  57        3.031012
  58        3.032547
  59        3.473825
  60        3.475776
  61        3.979822
  62        3.980871
  63        3.983036
  64        3.984224
  65        4.158559
  66        4.159818
  67        4.481815
  68        4.482639
  69        4.490159
  70        4.491546
  71        4.758508
  72        4.761237
  73        4.795064
  74        4.796050
  75        4.942843
  76        4.944581
  77        4.963565
  78        4.965904
  79        5.134255
  80        5.134999
  81        5.192683
  82        5.195618
  83        5.286958
  84        5.287822
  85        5.538822
  86        5.540070
  87        5.544240
  88        5.545547
  89        5.643868
  90        5.647198
  91        6.001682
  92        6.003125
  93        6.020841
  94        6.021677
  95        6.042623
  96        6.043059
  97        9.158709
  98        9.174988
  99        9.219748
 100        9.262883
 101        9.286326
 102        9.321727
 103        9.562946
 104        9.589652
 105        9.619173
 106        9.622387