 running on   40 total cores
 distrk:  each k-point on   40 cores,    1 groups
 distr:  one band on    5 cores,    8 groups
 using from now: INCAR     
 vasp.5.3.2 13Sep12 (build Sep  9 2014 11:37:56) complex                        
  
 POSCAR found type information on POSCAR  U  O 
 POSCAR found :  2 types and      12 ions
 LDA part: xc-table for Ceperly-Alder, standard interpolation
 POSCAR, INCAR and KPOINTS ok, starting setup
 FFT: planning ...
 WAVECAR not read
 entering main loop
       N       E                     dE             d eps       ncg     rms          rms(c)
DAV:   1     0.138200286250E+04    0.13820E+04   -0.39629E+04 55296   0.160E+03
DAV:   2     0.249990922571E+03   -0.11320E+04   -0.10521E+04 58776   0.464E+02
DAV:   3    -0.840518597858E+02   -0.33404E+03   -0.31906E+03 71896   0.226E+02
DAV:   4    -0.144578777040E+03   -0.60527E+02   -0.58749E+02 91488   0.903E+01
DAV:   5    -0.149011815507E+03   -0.44330E+01   -0.41542E+01100128   0.265E+01    0.222E+01
DAV:   6    -0.140134797421E+03    0.88770E+01   -0.10719E+02 83904   0.390E+01    0.131E+01
DAV:   7    -0.138444325018E+03    0.16905E+01   -0.24802E+01 89608   0.320E+01    0.965E+00
DAV:   8    -0.140507462825E+03   -0.20631E+01   -0.42841E+00 93976   0.122E+01    0.243E+01
DAV:   9    -0.139179604369E+03    0.13279E+01   -0.38118E+00 96304   0.106E+01    0.204E+01
DAV:  10    -0.138095560847E+03    0.10840E+01   -0.10585E+00 97960   0.621E+00    0.248E+00
DAV:  11    -0.138485997967E+03   -0.39044E+00   -0.73578E-01 97912   0.458E+00    0.118E+01
DAV:  12    -0.138092737327E+03    0.39326E+00   -0.49919E-01 97296   0.417E+00    0.280E+00
DAV:  13    -0.138085283126E+03    0.74542E-02   -0.84005E-02 99024   0.176E+00    0.181E+00
DAV:  14    -0.138080541576E+03    0.47416E-02   -0.13331E-02102680   0.767E-01    0.604E-01
DAV:  15    -0.138080891409E+03   -0.34983E-03   -0.28136E-03 98112   0.297E-01    0.266E-01
DAV:  16    -0.138081212631E+03   -0.32122E-03   -0.89597E-04101912   0.180E-01    0.124E-01
DAV:  17    -0.138081407417E+03   -0.19479E-03   -0.63197E-04104688   0.150E-01    0.765E-02
DAV:  18    -0.138081492859E+03   -0.85443E-04   -0.19995E-04 94440   0.707E-02    0.996E-02
DAV:  19    -0.138081538947E+03   -0.46088E-04   -0.11427E-04 93120   0.491E-02    0.640E-02
DAV:  20    -0.138081609308E+03   -0.70361E-04   -0.95800E-05 92504   0.411E-02    0.763E-02
DAV:  21    -0.138081648767E+03   -0.39459E-04   -0.36823E-05 69280   0.246E-02    0.729E-02
DAV:  22    -0.138081513460E+03    0.13531E-03   -0.26585E-04 96888   0.845E-02    0.821E-02
DAV:  23    -0.138081509548E+03    0.39120E-05   -0.16391E-05 54832   0.160E-02
   1 F= -.13808151E+03 E0= -.13808151E+03  d E =0.000000E+00  mag=    -0.1575    -0.1057    -0.0456
 writing wavefunctions
sjob
