    5    5    1    1
  0.2662000E+03  0.1100000E-08  0.1100000E-08  0.1100000E-08  0.5000000E-15
  1.000000000000000E-004
  CAR 
 LIO                                     
   40    1   64
 
  0.0000000E+00  0.0000000E+00  0.0000000E+00  0.1000000E+01
   1       -8.874832
   2       -7.966051
   3       -7.872283
   4       -7.311564
   5       -7.308839
   6       -7.218575
   7       -7.217404
   8       -7.146832
   9       -6.908678
  10       -6.907317
  11       -6.531322
  12       -6.529326
  13       -6.229402
  14       -6.090230
  15       -6.089219
  16       -5.951392
  17       -5.754085
  18       -5.751716
  19       -5.669192
  20       -5.668482
  21       -5.574673
  22       -5.574247
  23       -5.487955
  24       -5.278310
  25       -5.275929
  26       -5.224353
  27       -5.145747
  28       -5.145210
  29       -5.009452
  30       -4.763524
  31       -4.762546
  32       -4.589913
  33       -4.589120
  34       -4.433651
  35       -4.366641
  36       -4.365124
  37       -3.936901
  38       -3.788259
  39       -3.625574
  40       -3.624317
  41       -3.591916
  42       -3.590808
  43       -3.032545
  44       -3.029962
  45       -2.648889
  46       -2.611426
  47       -2.609600
  48       -2.433094
  49       -2.431352
  50       -2.337227
  51       -2.126833
  52       -2.091882
  53       -2.090512
  54       -2.055474
  55       -1.964865
  56       -1.964786
  57       -1.964349
  58       -1.844836
  59       -1.841247
  60       -1.286524
  61       -1.201506
  62       -0.978857
  63       -0.976490
  64       -0.583395
